SIESTA 1.3.7  -- [1.3f1 release] (04 Feb 2004)
Architecture  : mpif90
Compiler flags:  -O3 -openmp 
PARALLEL version

* Running on   32 nodes in parallel
 OMP_NUM_THREADS environment variable=                                         1
 MKL_NUM_THREADS environment variable=                                         1
 OMP_NUM_THREADS environment variable=                                         0
 MKL_NUM_THREADS environment variable=                                         0
 Maximum number of Threads, node index:           8           0
 Maximum number of Threads, node index:           8           1
 Maximum number of Threads, node index:           8           8
 Maximum number of Threads, node index:           8           7
 Maximum number of Threads, node index:           8           2
 Maximum number of Threads, node index:           8           3
 Maximum number of Threads, node index:           8           4
 Maximum number of Threads, node index:           8           5
 Maximum number of Threads, node index:           8           6
 Maximum number of Threads, node index:           8          14
 Maximum number of Threads, node index:           8          15
 Maximum number of Threads, node index:           8           9
 Maximum number of Threads, node index:           8          10
 Maximum number of Threads, node index:           8          11
 Maximum number of Threads, node index:           8          12
 Maximum number of Threads, node index:           8          13
 Maximum number of Threads, node index:           8          26
 Maximum number of Threads, node index:           8          27
 Maximum number of Threads, node index:           8          29
 Maximum number of Threads, node index:           8          30
 Maximum number of Threads, node index:           8          31
 Maximum number of Threads, node index:           8          24
 Maximum number of Threads, node index:           8          25
 Maximum number of Threads, node index:           8          28
 Maximum number of Threads, node index:           8          16
 Maximum number of Threads, node index:           8          17
 Maximum number of Threads, node index:           8          18
 Maximum number of Threads, node index:           8          21
 Maximum number of Threads, node index:           8          22
 Maximum number of Threads, node index:           8          23
 Maximum number of Threads, node index:           8          19
 Maximum number of Threads, node index:           8          20
 In parallel region?  T
 Number of Threads in parallel region           8
 Node index, Thread index           0           6
 In parallel region?  T
 Number of Threads in parallel region           8
 Node index, Thread index           0           1
 In parallel region?  T
 Number of Threads in parallel region           8
 Node index, Thread index           0           7
 In parallel region?  T
 Number of Threads in parallel region           8
 Node index, Thread index           0           4
 In parallel region?  T
 Number of Threads in parallel region           8
 Node index, Thread index           0           5
 In parallel region?  T
 Number of Threads in parallel region           8
 Node index, Thread index           0           2
 In parallel region?  T
 Number of Threads in parallel region           8
 Node index, Thread index           0           0
 In parallel region?  T
 Number of Threads in parallel region           8
 Node index, Thread index           0           3
>> Start of run:  12-JUL-2016  18:25:53

                           ***********************       
                           *  WELCOME TO SIESTA  *       
                           ***********************       

reinit: Reading from standard input
************************** Dump of input data file ****************************
#
SystemName            Au_device        # optional change
SystemLabel  AuLead
#********************************************************
# Specification of atomic species and positions
#********************************************************
# Chemical species
NumberOfSpecies    1
%block ChemicalSpeciesLabel
 1 79 Au
%endblock ChemicalSpeciesLabel
# UNIT CELL
LatticeConstant          1.0 Ang
%block LatticeVectors
   5.1209  0.0000000000  0.0000000000
   0.0000000000  2.9566  0.0000000000
   0.0000000000  0.0000000000 7.242
%endblock LatticeVectors
# ATOMIC POSITIONS
NumberOfAtoms    6
AtomicCoordinatesFormat    Ang
%block AtomicCoordinatesAndAtomicSpecies
           0.853483000     1.478277000     0.000000000  1
           3.413937000     0.000000000     0.000000000  1
           0.000000000    -0.000000000     2.414000000  1
           2.560449000     1.478277000     2.414000000  1
           1.706973000     0.000000000     4.828000000  1
           4.267422000     1.478277000     4.828000000  1
%endblock AtomicCoordinatesAndAtomicSpecies
#********************************************************
# DFT options
#********************************************************
# Basis set variables
PAO.BasisType    split
PAO.EnergyShift         0.02700000000 eV
%block PAO.Basis
Au          3                    # Species label, number of l-shells
 n=6   0   2                   # n, l, Nzeta, Polarization, NzetaPol
   6.0    0.0
 n=6   1   2                    # n, l, Nzeta, Polarization, NzetaPol
   5.0    0.0
 n=5   2   2                         # n, l, Nzeta
   4.0    0.0
%endblock PAO.Basis
%block kgrid_Monkhorst_Pack
  4   0   0     0.0
  0   4   0     0.0
  0   0   20     0.0
%endblock kgrid_Monkhorst_Pack
# General variables
ElectronicTemperature     200 K
MeshCutoff                300. Ry
xc.functional             LDA           # Exchange-correlation functional
xc.authors                CA
#SpinPolarized             T
#SpinOrbit                       T
# SCF variables
DM.MixSCF1                        F          # optional change
MaxSCFIterations         1000           # Maximum number of SCF iter
DM.MixingWeight                 0.1         # optional change
DM.Tolerance                 1.0E-5
DM.UseSaveDM             true           # to use continuation files
DM.NumberPulay                    5
SolutionMethod   	      diagon
#FixSpin		      T
#TotalSpin             0.5
# Output variables
WriteMullikenPop                   0
WriteBands                         F
SaveRho                            T
SaveElectrostaticPotential         T
SaveTotalPotential                 F
WriteCoorXmol                      T
WriteMDXmol                        T
#********************************************************
# SMEAGOL options
#********************************************************
#ParallelOverK                     T
BulkTransport                     T
BulkLead                         LR
WriteEDM                          T
************************** End of input data file *****************************

reinit: -----------------------------------------------------------------------
reinit: System Name: Au_device                                                  
reinit: -----------------------------------------------------------------------
reinit: System Label: AuLead              
reinit: -----------------------------------------------------------------------

initatom: Reading input for the pseudopotentials and atomic orbitals ----------
 Species number:            1  Label: Au Atomic number:          79
Ground state valence configuration:   6s01  5d10
Reading pseudopotential information in formatted form from Au.psf
For Au, standard SIESTA heuristics set lmxkb to 3
 (one more than the basis l, including polarization orbitals).
Use PS.lmax or PS.KBprojectors blocks to override.

<basis_specs>
===============================================================================
Au                   Z=  79    Mass=  196.97        Charge=  0.0000    
Lmxo=2 Lmxkb=3     BasisType=split      Semic=F
L=0  Nsemic=0  Cnfigmx=6
          n=1  nzeta=2  polorb=0
               vcte:    0.0000    
               rinn:    0.0000    
                rcs:    6.0000      0.0000    
            lambdas:    1.0000      1.0000    
L=1  Nsemic=0  Cnfigmx=6
          n=1  nzeta=2  polorb=0
               vcte:    0.0000    
               rinn:    0.0000    
                rcs:    5.0000      0.0000    
            lambdas:    1.0000      1.0000    
L=2  Nsemic=0  Cnfigmx=5
          n=1  nzeta=2  polorb=0
               vcte:    0.0000    
               rinn:    0.0000    
                rcs:    4.0000      0.0000    
            lambdas:    1.0000      1.0000    
-------------------------------------------------------------------------------
L=0  Nkbl=1  erefs: 0.17977+309
L=1  Nkbl=1  erefs: 0.17977+309
L=2  Nkbl=1  erefs: 0.17977+309
L=3  Nkbl=1  erefs: 0.17977+309
===============================================================================
</basis_specs>

atom: Called for Au  (Z =  79)

read_vps: Pseudopotential generation method:
read_vps: ATM3      Troullier-Martins                       

read_vps: Pseudopotential generated from a relativistic atomic calculation
read_vps: There are spin-orbit pseudopotentials available

read_vps: Valence configuration (pseudopotential and basis set generation):
6s( 1.00) rc: 2.18
6p( 0.00) rc: 2.47
5d(10.00) rc: 1.79
5f( 0.00) rc: 2.00
Total valence charge:   11.00000

read_vps: Pseudopotential includes a core correction:
read_vps: Pseudo-core for xc-correction
comcore: Pseudo-core radius Rcore=  4.027091

xc_check: Exchange-correlation functional:
xc_check: Ceperley-Alder
V l=0 = -2*Zval/r beyond r=  2.9833
V l=1 = -2*Zval/r beyond r=  2.9833
V l=2 = -2*Zval/r beyond r=  2.9833
V l=3 = -2*Zval/r beyond r=  2.9833
All V_l potentials equal beyond r=  2.4425
This should be close to max(r_c) in ps generation
All pots = -2*Zval/r beyond r=  2.9833

VLOCAL1: 99.0% of the norm of Vloc inside      7.276 Ry
VLOCAL1: 99.9% of the norm of Vloc inside     16.582 Ry
atom: Maximum radius for 4*pi*r*r*local-pseudopot. charge    2.94627
atom: Maximum radius for r*vlocal+2*Zval:    2.60007
GHOST: No ghost state for L =  0
GHOST: No ghost state for L =  1
GHOST: No ghost state for L =  2
GHOST: No ghost state for L =  3

KBgen: Kleinman-Bylander projectors: 
   l= 0   rc=  3.175745   el= -0.445638   Ekb=  5.072790   kbcos=  0.276607
   l= 1   rc=  3.256140   el= -0.066324   Ekb=  2.703235   kbcos=  0.227171
   l= 2   rc=  3.020861   el= -0.526103   Ekb= -4.704026   kbcos= -0.643795
   l= 3   rc=  3.466145   el=  0.003438   Ekb= -2.516122   kbcos= -0.010529

KBgen: Total number of  Kleinman-Bylander projectors:   16
atom: -------------------------------------------------------------------------

atom: SANKEY-TYPE ORBITALS:
atom: Selected multiple-zeta basis: split     

SPLIT: Orbitals with angular momentum L= 0

SPLIT: Basis orbitals for state 6s

   izeta = 1
                 lambda =    1.000000
                     rc =    6.083298
                 energy =   -0.427281
                kinetic =    0.413324
    potential(screened) =   -0.840605
       potential(ionic) =   -8.569369

   izeta = 2
                 rmatch =    5.643738
              splitnorm =    0.150000
                 energy =   -0.356838
                kinetic =    0.642757
    potential(screened) =   -0.999595
       potential(ionic) =   -9.161462

SPLIT: Orbitals with angular momentum L= 1

SPLIT: Basis orbitals for state 6p

   izeta = 1
                 lambda =    1.000000
                     rc =    4.980577
                 energy =    0.202708
                kinetic =    0.831771
    potential(screened) =   -0.629063
       potential(ionic) =   -7.918051

parabola: The program failed in finding a SPLIT orbital 
parabola: with the desired splitnorm

   izeta = 2
                 rmatch =    4.918707
              splitnorm =    0.194436
                 energy =    0.301573
                kinetic =    0.989003
    potential(screened) =   -0.687431
       potential(ionic) =   -8.483445

SPLIT: Orbitals with angular momentum L= 2

SPLIT: Basis orbitals for state 5d

   izeta = 1
                 lambda =    1.000000
                     rc =    3.977066
                 energy =   -0.495955
                kinetic =    5.256445
    potential(screened) =   -5.752400
       potential(ionic) =  -16.435954

   izeta = 2
                 rmatch =    2.733385
              splitnorm =    0.150000
                 energy =   -0.192477
                kinetic =    7.214740
    potential(screened) =   -7.407217
       potential(ionic) =  -18.829792
atom: Total number of Sankey-type orbitals: 18

atm_pop: Valence configuration(local Pseudopot. screening):
 6s( 1.00)                                                            
 6p( 0.00)                                                            
 5d(10.00)                                                            
Vna: chval, zval:   11.00000  11.00000

Vna:  Cut-off radius for the neutral-atom potential:   6.083298

atom: _________________________________________________________________________

prinput: Basis input ----------------------------------------------------------

PAO.BasisType split     

%block ChemicalSpeciesLabel
    1   79 Au                      # Species index, atomic number, species label
%endblock ChemicalSpeciesLabel

%block PAO.Basis                 # Define Basis set
Au          3                    # Species label, number of l-shells
 n=6   0   2                         # n, l, Nzeta 
   6.083      5.644   
   1.000      1.000   
 n=6   1   2                         # n, l, Nzeta 
   4.981      4.919   
   1.000      1.000   
 n=5   2   2                         # n, l, Nzeta 
   3.977      2.733   
   1.000      1.000   
%endblock PAO.Basis

prinput: ----------------------------------------------------------------------


siesta: ******************** Simulation parameters ****************************
siesta:
siesta: The following are some of the parameters of the simulation.
siesta: A complete list of the parameters used, including defect values,
siesta: can be found in file out.fdf
siesta:
coor:   Atomic-coordinates input format  =     Cartesian coordinates
coor:                                          (in Angstroms)
redata: Number of spin components        =     1
redata: SpinOrbit                        =     0
redata: Long output                      =     F
redata: Number of Atomic Species         =     1
redata: Charge density info will appear in .RHO file
redata: Write Mulliken Pop.              =     NO
redata: Write Hamilton Pop.              =     NO
redata: Mesh Cutoff                      =   300.0000  Ry
redata: Net charge of the system         =     0.0000 |e|
redata: Max. number of SCF Iter          =  1000
redata: One Pulay mixing every           =     5 iterations
redata: Mix DM in first SCF step ?       =     F
redata: Write Pulay info on disk?        =     F
redata: New DM Mixing Weight             =     0.1000
redata: No kicks to SCF
redata: DM Mixing Weight for Kicks       =     0.5000
redata: DM Tolerance for SCF             =     0.000010
redata: Use continuation files for DM    =     T
redata: Neglect nonoverlap interactions  =     F
redata: Method of Calculation            =     Diagonalization
redata: Divide and Conquer               =     F
redata: Electronic Temperature           =     0.0013  Ry
redata: Fix the spin of the system       =     F
redata: Dynamics option                  =     CG coord. optimization
redata: Variable cell                    =     F
redata: Use continuation files for CG    =     F
redata: Maximum number of CG moves       =     0
redata: Max atomic displ per move        =     0.2000  Bohr
redata: Force tolerance                  =     0.0016  Ry/Bohr
redata: ***********************************************************************

siesta: Atomic coordinates (Bohr) and species
siesta:      1.61285   2.79354   0.00000  1        1
siesta:      6.45141   0.00000   0.00000  1        2
siesta:      0.00000   0.00000   4.56180  1        3
siesta:      4.83855   2.79354   4.56180  1        4
siesta:      3.22571   0.00000   9.12360  1        5
siesta:      8.06426   2.79354   9.12360  1        6

initatomlists: Number of atoms, orbitals, and projectors:      6   108    96

siesta: System type = bulk      
 Nodes, Orbitals          32         108
 blocksizedefault           3

* ProcessorY, Blocksize:    4   3


siesta: k-grid: Number of k-points =   176
siesta: k-grid: Cutoff             =     5.913 Ang
siesta: k-grid: Supercell and displacements
siesta: k-grid:    4   0   0      0.000
siesta: k-grid:    0   4   0      0.000
siesta: k-grid:    0   0  20      0.000
siesta: overlap:  rmaxh   veclen  direction
siesta: overlap:  19.0989  9.6771   1
siesta: overlap:  rmaxh   veclen  direction
siesta: overlap:  19.0989  5.5872   2
siesta: overlap:  rmaxh   veclen  direction
siesta: overlap:  19.0989 13.6854   3
 label:           1 Au                             1 s      
 label:           2 Au                             1 s      
 label:           3 Au                             1 py     
 label:           4 Au                             1 pz     
 label:           5 Au                             1 px     
 label:           6 Au                             1 py     
 label:           7 Au                             1 pz     
 label:           8 Au                             1 px     
 label:           9 Au                             1 dxy    
 label:          10 Au                             1 dyz    
 label:          11 Au                             1 dz2    
 label:          12 Au                             1 dxz    
 label:          13 Au                             1 dx2-y2 
 label:          14 Au                             1 dxy    
 label:          15 Au                             1 dyz    
 label:          16 Au                             1 dz2    
 label:          17 Au                             1 dxz    
 label:          18 Au                             1 dx2-y2 
 label:          19 Au                             2 s      
 label:          20 Au                             2 s      
 label:          21 Au                             2 py     
 label:          22 Au                             2 pz     
 label:          23 Au                             2 px     
 label:          24 Au                             2 py     
 label:          25 Au                             2 pz     
 label:          26 Au                             2 px     
 label:          27 Au                             2 dxy    
 label:          28 Au                             2 dyz    
 label:          29 Au                             2 dz2    
 label:          30 Au                             2 dxz    
 label:          31 Au                             2 dx2-y2 
 label:          32 Au                             2 dxy    
 label:          33 Au                             2 dyz    
 label:          34 Au                             2 dz2    
 label:          35 Au                             2 dxz    
 label:          36 Au                             2 dx2-y2 
 label:          37 Au                             3 s      
 label:          38 Au                             3 s      
 label:          39 Au                             3 py     
 label:          40 Au                             3 pz     
 label:          41 Au                             3 px     
 label:          42 Au                             3 py     
 label:          43 Au                             3 pz     
 label:          44 Au                             3 px     
 label:          45 Au                             3 dxy    
 label:          46 Au                             3 dyz    
 label:          47 Au                             3 dz2    
 label:          48 Au                             3 dxz    
 label:          49 Au                             3 dx2-y2 
 label:          50 Au                             3 dxy    
 label:          51 Au                             3 dyz    
 label:          52 Au                             3 dz2    
 label:          53 Au                             3 dxz    
 label:          54 Au                             3 dx2-y2 
 label:          55 Au                             4 s      
 label:          56 Au                             4 s      
 label:          57 Au                             4 py     
 label:          58 Au                             4 pz     
 label:          59 Au                             4 px     
 label:          60 Au                             4 py     
 label:          61 Au                             4 pz     
 label:          62 Au                             4 px     
 label:          63 Au                             4 dxy    
 label:          64 Au                             4 dyz    
 label:          65 Au                             4 dz2    
 label:          66 Au                             4 dxz    
 label:          67 Au                             4 dx2-y2 
 label:          68 Au                             4 dxy    
 label:          69 Au                             4 dyz    
 label:          70 Au                             4 dz2    
 label:          71 Au                             4 dxz    
 label:          72 Au                             4 dx2-y2 
 label:          73 Au                             5 s      
 label:          74 Au                             5 s      
 label:          75 Au                             5 py     
 label:          76 Au                             5 pz     
 label:          77 Au                             5 px     
 label:          78 Au                             5 py     
 label:          79 Au                             5 pz     
 label:          80 Au                             5 px     
 label:          81 Au                             5 dxy    
 label:          82 Au                             5 dyz    
 label:          83 Au                             5 dz2    
 label:          84 Au                             5 dxz    
 label:          85 Au                             5 dx2-y2 
 label:          86 Au                             5 dxy    
 label:          87 Au                             5 dyz    
 label:          88 Au                             5 dz2    
 label:          89 Au                             5 dxz    
 label:          90 Au                             5 dx2-y2 
 label:          91 Au                             6 s      
 label:          92 Au                             6 s      
 label:          93 Au                             6 py     
 label:          94 Au                             6 pz     
 label:          95 Au                             6 px     
 label:          96 Au                             6 py     
 label:          97 Au                             6 pz     
 label:          98 Au                             6 px     
 label:          99 Au                             6 dxy    
 label:         100 Au                             6 dyz    
 label:         101 Au                             6 dz2    
 label:         102 Au                             6 dxz    
 label:         103 Au                             6 dx2-y2 
 label:         104 Au                             6 dxy    
 label:         105 Au                             6 dyz    
 label:         106 Au                             6 dz2    
 label:         107 Au                             6 dxz    
 label:         108 Au                             6 dx2-y2 

superc: Internal auxiliary supercell:     3 x     7 x     3  =      63
superc: Number of atoms, orbitals, and projectors:    378  6804  6048
 
* Maximum dynamic memory allocated =     1 MB

siesta:                 ==============================
                            Begin CG move =      0
                        ==============================

superc: Internal auxiliary supercell:     3 x     7 x     3  =      63
superc: Number of atoms, orbitals, and projectors:    378  6804  6048

read_ldau The LDA+U method used is from Czyzky PRB 49 14211

InitMesh: MESH =    54 x    32 x    80 =      138240
InitMesh: Mesh cutoff (required, used) =   300.000   307.324 Ry
 
* Maximum dynamic memory allocated =    19 MB
cdiag: going 2D with      4 by      8 proc- grid

stepf: Fermi-Dirac step function

siesta: Program's energy decomposition (eV):
siesta: Eions   =      7230.002773
siesta: Ena     =       325.636075
siesta: Ekin    =      4324.652839
siesta: Enl     =     -1671.225505
siesta: DEna    =        -0.000106
siesta: DUscf   =         0.000000
siesta: DUext   =         0.000000
siesta: Exc     =     -2552.628398
siesta: eta*DQ  =         0.000000
siesta: Emadel  =         0.000000
siesta: Eharris =     -6857.145931
siesta: Eso     =         0.000000
siesta: Etot    =     -6803.567867
siesta: FreeEng =     -6803.567867

siesta: iscf   Eharris(eV)      E_KS(eV)   FreeEng(eV)     dDmax   Ef(eV)
siesta:    1    -6857.1459    -6803.5679    -6803.5679   0.49498   0.8459
timer: Routine,Calls,Time,% = IterSCF        1     502.967  96.82
siesta:    2    -6867.8297    -6813.8203    -6813.8317   0.85403  -3.1149
siesta:    3    -6838.4859    -6820.0726    -6820.0739   0.36568  -1.7178
siesta:    4    -6838.3691    -6821.6901    -6821.6920   0.30487  -1.6054
siesta:    5    -6838.3609    -6837.9361    -6837.9386   0.00691  -1.6038
siesta:    6    -6838.3607    -6838.0561    -6838.0586   0.00604  -1.5998
siesta:    7    -6838.3607    -6838.3078    -6838.3103   0.00042  -1.5999
siesta:    8    -6838.3607    -6838.3194    -6838.3219   0.00034  -1.5995
siesta:    9    -6838.3606    -6838.3608    -6838.3633   0.00003  -1.5996
siesta:   10    -6838.3606    -6838.3609    -6838.3634   0.00002  -1.5996
siesta:   11    -6838.3606    -6838.3609    -6838.3634   0.00001  -1.5996
siesta:   12    -6838.3606    -6838.3607    -6838.3632   0.00000  -1.5996

siesta: E_KS(eV) =            -6838.3608

siesta: E_KS - E_eggbox =     -6838.3608

siesta: Atomic forces (eV/Ang):
----------------------------------------
 Tot    0.003352   -0.002548    0.000464
----------------------------------------
 Max    0.241855
 Res    0.114031    sqrt( Sum f_i^2 / 3N )
----------------------------------------
 Max    0.241855    constrained
 
* Maximum dynamic memory allocated =    19 MB

coxmol: Writing XMOL coordinates into file AuLead.xyz              

siesta: Eigenvalues (eV):
  ik is    eps
   1  1  -9.38  -7.60  -7.31  -7.31  -7.24  -7.24  -6.82  -6.65  -6.65  -6.30
         -6.30  -6.17  -5.87  -5.86  -5.55  -5.55  -5.51  -5.48  -5.46  -4.99
         -4.99  -4.63  -4.55  -4.46  -4.46  -4.45  -4.44  -4.16  -3.44  -3.41
         -3.41  -2.57  -1.90  -1.90   0.69   0.69   3.40   3.40   6.74   7.02
          7.02   7.99   7.99   8.33   8.33  10.41  10.41  11.21  11.31  11.65
         15.79  16.10  16.10  18.42  23.20  24.64  24.64  28.31  28.33  28.34
         28.42  29.92  32.78  32.78  33.92  34.35  35.13  35.13  36.76  37.05
         37.05  38.23  38.23  39.06  39.06  39.51  39.66  39.66  40.02  41.77
         42.97  42.97  44.63  44.63  46.17  46.17  46.51  51.48  51.74  51.74
         60.63  63.13  65.57  65.58  69.98  70.00  71.69  79.42  80.60  80.61
        100.48 100.49 101.91 103.08 104.18 104.19 111.03 111.04
   2  1  -9.74  -7.52  -7.52  -7.37  -7.10  -7.10  -6.80  -6.43  -6.43  -6.27
         -6.27  -6.17  -5.98  -5.98  -5.81  -5.81  -5.55  -5.44  -5.09  -4.81
         -4.81  -4.81  -4.81  -4.78  -4.24  -4.17  -4.10  -4.10  -3.82  -3.82
         -3.51  -2.40  -2.40   0.24   0.24   2.26   2.92   3.89   3.89   5.70
          6.87   6.87   7.33   7.34  10.19  10.19  10.54  12.86  12.86  13.49
         14.62  14.80  14.80  20.02  22.22  26.60  26.60  27.86  27.86  28.89
         30.91  31.21  31.21  32.57  33.46  34.23  34.42  35.04  35.04  36.35
         36.35  38.46  38.46  38.66  38.66  40.50  41.15  41.15  42.05  43.04
         43.05  43.45  43.45  44.87  45.79  45.79  46.80  46.80  48.28  48.73
         62.56  63.37  63.37  65.40  65.40  75.34  81.92  83.43  83.43  88.26
         92.70  92.70  94.84 104.05 104.43 104.43 111.01 111.01
   3  1  -9.38  -7.60  -7.31  -7.31  -7.24  -7.24  -6.82  -6.65  -6.65  -6.30
         -6.30  -6.17  -5.87  -5.86  -5.55  -5.55  -5.51  -5.48  -5.46  -4.99
         -4.99  -4.63  -4.55  -4.46  -4.46  -4.45  -4.44  -4.16  -3.44  -3.41
         -3.41  -2.57  -1.90  -1.90   0.69   0.69   3.40   3.40   6.74   7.02
          7.02   7.99   7.99   8.33   8.33  10.41  10.41  11.21  11.31  11.65
         15.79  16.10  16.10  18.42  23.20  24.64  24.64  28.31  28.33  28.34
         28.42  29.92  32.78  32.78  33.92  34.35  35.13  35.13  36.76  37.05
         37.05  38.23  38.23  39.06  39.06  39.51  39.66  39.66  40.02  41.77
         42.97  42.97  44.63  44.63  46.17  46.17  46.51  51.48  51.74  51.74
         60.63  63.13  65.57  65.58  69.98  70.00  71.69  79.42  80.60  80.61
        100.48 100.49 101.91 103.08 104.18 104.19 111.03 111.04
   4  1  -8.41  -8.41  -7.32  -7.32  -7.07  -7.07  -7.06  -7.06  -6.27  -6.27
         -6.26  -6.26  -6.21  -6.21  -5.65  -5.65  -5.38  -5.38  -5.20  -5.20
         -4.70  -4.70  -4.64  -4.64  -3.95  -3.95  -3.87  -3.87  -3.70  -3.70
         -3.34  -3.34  -1.48  -1.48  -1.08  -1.08   5.21   5.21   6.56   6.56
          8.31   8.31   8.54   8.54   8.96   8.96  10.50  10.50  12.27  12.27
         13.12  13.12  18.42  18.42  25.48  25.48  25.78  25.78  28.64  28.64
         29.68  29.68  31.18  31.18  32.22  32.22  34.75  34.75  35.27  35.27
         35.59  35.59  37.47  37.47  39.97  39.97  41.85  41.85  43.26  43.26
         44.16  44.16  44.58  44.58  47.03  47.03  49.01  49.01  50.69  50.69
         61.05  61.05  65.30  65.30  69.82  69.82  74.30  74.30  87.27  87.27
         87.52  87.52  95.19  95.19 107.18 107.18 119.33 119.33
   5  1 -10.58  -8.21  -8.21  -8.18  -7.78  -7.46  -7.44  -6.15  -5.98  -5.93
         -5.90  -5.90  -5.78  -5.78  -5.71  -5.71  -5.57  -5.46  -5.42  -5.41
         -5.40  -5.17  -4.60  -4.45  -4.30  -3.96  -3.80  -3.76  -3.63  -3.62
         -3.46  -3.46  -3.31  -3.01  -1.55  -0.43   2.99   5.87   6.43   6.44
          6.51   8.42   9.07   9.68  12.69  13.87  13.87  14.07  15.88  15.89
         16.22  17.59  17.92  19.13  20.97  22.63  26.43  26.43  27.32  29.11
         29.19  29.47  30.18  31.58  31.88  32.60  32.61  33.59  33.59  33.87
         34.82  35.95  35.95  35.98  36.43  38.47  38.90  39.40  39.92  40.52
         40.52  43.37  44.18  44.99  45.26  46.83  48.39  48.39  53.18  54.00
         56.26  56.26  58.04  59.95  60.97  65.41  66.47  66.70  69.56  74.44
         74.44  84.48  86.47  89.21 100.74 103.65 110.00 110.01
   6  1 -11.03  -8.61  -8.61  -7.99  -7.79  -7.79  -7.65  -6.09  -6.09  -5.86
         -5.86  -5.86  -5.69  -5.69  -5.69  -5.69  -5.35  -5.35  -5.29  -5.29
         -5.17  -5.17  -4.50  -4.50  -3.93  -3.93  -3.93  -3.93  -3.46  -3.39
         -3.39  -3.14  -3.13  -0.94  -0.94  -0.49   2.41   2.41   3.86   6.25
          6.25   8.19   8.19  12.55  12.55  13.14  13.14  16.46  16.46  16.47
         16.47  18.96  18.97  18.97  19.64  20.90  25.90  25.90  29.11  29.11
         29.11  29.36  29.60  29.60  29.60  29.60  31.51  31.51  33.22  33.22
         33.85  33.85  36.62  36.62  38.67  38.67  40.18  40.19  43.11  43.12
         43.98  43.98  43.99  43.99  49.32  49.35  49.35  50.03  52.66  52.66
         55.48  55.48  55.51  55.52  55.54  56.22  56.22  62.58  62.59  73.68
         73.69  79.69  81.18  81.19  81.20  81.20 103.82 103.82
   7  1 -10.58  -8.21  -8.21  -8.18  -7.78  -7.46  -7.44  -6.15  -5.98  -5.93
         -5.90  -5.90  -5.78  -5.78  -5.71  -5.71  -5.57  -5.46  -5.42  -5.41
         -5.40  -5.17  -4.60  -4.45  -4.30  -3.96  -3.80  -3.76  -3.63  -3.62
         -3.46  -3.46  -3.31  -3.01  -1.55  -0.43   2.99   5.87   6.43   6.44
          6.51   8.42   9.07   9.68  12.69  13.87  13.87  14.07  15.88  15.89
         16.22  17.59  17.92  19.13  20.97  22.63  26.43  26.43  27.32  29.11
         29.19  29.47  30.18  31.58  31.88  32.60  32.61  33.59  33.59  33.87
         34.82  35.95  35.95  35.98  36.43  38.47  38.90  39.40  39.92  40.52
         40.52  43.37  44.18  44.99  45.26  46.83  48.39  48.39  53.18  54.00
         56.26  56.26  58.04  59.95  60.97  65.41  66.47  66.70  69.56  74.44
         74.44  84.48  86.47  89.21 100.74 103.65 110.00 110.01
   8  1  -9.39  -9.39  -7.60  -7.60  -7.31  -7.31  -6.82  -6.82  -6.30  -6.30
         -6.17  -6.17  -5.86  -5.86  -5.51  -5.51  -5.48  -5.48  -5.46  -5.46
         -4.99  -4.99  -4.63  -4.63  -4.55  -4.55  -4.44  -4.44  -4.16  -4.16
         -3.44  -3.44  -2.57  -2.57  -1.90  -1.90   6.74   6.74   7.02   7.02
          8.33   8.33  11.21  11.21  11.31  11.31  11.66  11.66  15.78  15.78
         16.10  16.10  18.42  18.42  23.20  23.20  28.31  28.31  28.34  28.34
         28.41  28.41  29.91  29.91  33.92  33.92  34.35  34.35  35.13  35.13
         36.76  36.76  37.05  37.05  38.20  38.20  39.49  39.49  39.66  39.66
         40.01  40.01  41.77  41.77  42.97  42.97  46.51  46.51  51.48  51.48
         60.61  60.61  63.13  63.13  65.57  65.57  71.69  71.69  79.43  79.43
        100.48 100.48 101.91 101.91 103.07 103.07 111.05 111.05
   9  1  -9.38  -7.60  -7.31  -7.31  -7.24  -7.24  -6.82  -6.65  -6.65  -6.30
         -6.30  -6.17  -5.87  -5.86  -5.55  -5.55  -5.51  -5.48  -5.46  -4.99
         -4.99  -4.63  -4.55  -4.46  -4.46  -4.45  -4.44  -4.16  -3.44  -3.41
         -3.41  -2.57  -1.90  -1.90   0.69   0.69   3.40   3.40   6.74   7.02
          7.02   7.99   7.99   8.33   8.33  10.41  10.41  11.21  11.31  11.65
         15.79  16.10  16.10  18.42  23.20  24.64  24.64  28.31  28.33  28.34
         28.42  29.92  32.78  32.78  33.92  34.35  35.13  35.13  36.76  37.05
         37.05  38.23  38.23  39.06  39.06  39.51  39.66  39.66  40.02  41.77
         42.97  42.97  44.63  44.63  46.17  46.17  46.51  51.48  51.74  51.74
         60.63  63.13  65.57  65.58  69.98  70.00  71.69  79.42  80.60  80.61
        100.48 100.49 101.91 103.08 104.18 104.19 111.03 111.04
  10  1  -9.74  -7.52  -7.52  -7.37  -7.10  -7.10  -6.80  -6.43  -6.43  -6.27
         -6.27  -6.17  -5.98  -5.98  -5.81  -5.81  -5.55  -5.44  -5.09  -4.81
         -4.81  -4.81  -4.81  -4.78  -4.24  -4.17  -4.10  -4.10  -3.82  -3.82
         -3.51  -2.40  -2.40   0.24   0.24   2.26   2.92   3.89   3.89   5.70
          6.87   6.87   7.33   7.34  10.19  10.19  10.54  12.86  12.86  13.49
         14.62  14.80  14.80  20.02  22.22  26.60  26.60  27.86  27.86  28.89
         30.91  31.21  31.21  32.57  33.46  34.23  34.42  35.04  35.04  36.35
         36.35  38.46  38.46  38.66  38.66  40.50  41.15  41.15  42.05  43.04
         43.05  43.45  43.45  44.87  45.79  45.79  46.80  46.80  48.28  48.73
         62.56  63.37  63.37  65.40  65.40  75.34  81.92  83.43  83.43  88.26
         92.70  92.70  94.84 104.05 104.43 104.43 111.01 111.01
  11  1  -9.38  -7.60  -7.31  -7.31  -7.24  -7.24  -6.82  -6.65  -6.65  -6.30
         -6.30  -6.17  -5.87  -5.86  -5.55  -5.55  -5.51  -5.48  -5.46  -4.99
         -4.99  -4.63  -4.55  -4.46  -4.46  -4.45  -4.44  -4.16  -3.44  -3.41
         -3.41  -2.57  -1.90  -1.90   0.69   0.69   3.40   3.40   6.74   7.02
          7.02   7.99   7.99   8.33   8.33  10.41  10.41  11.21  11.31  11.65
         15.79  16.10  16.10  18.42  23.20  24.64  24.64  28.31  28.33  28.34
         28.42  29.92  32.78  32.78  33.92  34.35  35.13  35.13  36.76  37.05
         37.05  38.23  38.23  39.06  39.06  39.51  39.66  39.66  40.02  41.77
         42.97  42.97  44.63  44.63  46.17  46.17  46.51  51.48  51.74  51.74
         60.63  63.13  65.57  65.58  69.98  70.00  71.69  79.42  80.60  80.61
        100.48 100.49 101.91 103.08 104.18 104.19 111.03 111.04
  12  1  -8.41  -8.41  -7.32  -7.32  -7.07  -7.07  -7.06  -7.06  -6.27  -6.27
         -6.26  -6.26  -6.21  -6.21  -5.65  -5.65  -5.38  -5.38  -5.20  -5.20
         -4.70  -4.70  -4.64  -4.64  -3.95  -3.95  -3.87  -3.87  -3.70  -3.70
         -3.34  -3.34  -1.48  -1.48  -1.08  -1.08   5.21   5.21   6.56   6.56
          8.31   8.31   8.54   8.54   8.96   8.96  10.50  10.50  12.27  12.27
         13.12  13.12  18.42  18.42  25.48  25.48  25.78  25.78  28.64  28.64
         29.68  29.68  31.18  31.18  32.22  32.22  34.75  34.75  35.27  35.27
         35.59  35.59  37.47  37.47  39.97  39.97  41.85  41.85  43.26  43.26
         44.16  44.16  44.58  44.58  47.03  47.03  49.01  49.01  50.69  50.69
         61.05  61.05  65.30  65.30  69.82  69.82  74.30  74.30  87.27  87.27
         87.52  87.52  95.19  95.19 107.18 107.18 119.33 119.33
  13  1  -7.70  -7.70  -7.64  -7.64  -7.39  -7.39  -7.38  -7.38  -6.29  -6.29
         -6.04  -6.04  -5.75  -5.75  -5.50  -5.50  -5.16  -5.16  -5.08  -5.08
         -4.18  -4.18  -3.87  -3.87  -3.76  -3.76  -3.53  -3.53  -3.24  -3.24
         -1.81  -1.81   0.15   0.15   1.03   1.03   1.30   1.30   4.22   4.22
          4.59   4.59   7.35   7.35   8.81   8.81  10.28  10.28  10.92  10.92
         12.35  12.35  14.93  14.93  21.25  21.25  24.30  24.30  28.73  28.73
         29.26  29.26  30.97  30.97  31.22  31.22  37.19  37.19  38.44  38.44
         39.69  39.69  39.86  39.86  41.29  41.29  43.62  43.62  44.84  44.84
         46.44  46.44  47.75  47.75  49.10  49.10  52.05  52.05  54.73  54.73
         59.07  59.07  60.15  60.15  68.18  68.18  74.91  74.92  80.48  80.48
         82.63  82.63  86.83  86.83 107.12 107.12 109.12 109.12
  14  1  -7.31  -7.31  -7.24  -7.24  -7.24  -7.24  -6.65  -6.65  -6.65  -6.65
         -6.30  -6.30  -5.86  -5.86  -5.55  -5.55  -5.55  -5.55  -4.99  -4.99
         -4.46  -4.46  -4.46  -4.46  -4.44  -4.44  -3.41  -3.41  -3.41  -3.41
         -1.90  -1.90   0.69   0.69   0.69   0.69   3.40   3.40   3.40   3.40
          7.02   7.02   7.99   7.99   7.99   7.99   8.33   8.33  10.41  10.41
         10.41  10.41  16.10  16.10  24.64  24.64  24.64  24.64  28.34  28.34
         32.77  32.77  32.78  32.78  35.13  35.13  37.05  37.05  38.25  38.25
         39.06  39.06  39.06  39.06  39.66  39.66  42.97  42.97  44.63  44.63
         44.63  44.63  46.18  46.18  46.18  46.18  51.74  51.74  51.74  51.74
         65.58  65.58  69.99  69.99  69.99  69.99  80.61  80.61  80.61  80.61
        100.49 100.49 104.20 104.20 104.20 104.20 111.04 111.04
  15  1  -7.70  -7.70  -7.64  -7.64  -7.39  -7.39  -7.38  -7.38  -6.29  -6.29
         -6.04  -6.04  -5.75  -5.75  -5.50  -5.50  -5.16  -5.16  -5.08  -5.08
         -4.18  -4.18  -3.87  -3.87  -3.76  -3.76  -3.53  -3.53  -3.24  -3.24
         -1.81  -1.81   0.15   0.15   1.03   1.03   1.30   1.30   4.22   4.22
          4.59   4.59   7.35   7.35   8.81   8.81  10.28  10.28  10.92  10.92
         12.35  12.35  14.93  14.93  21.25  21.25  24.30  24.30  28.73  28.73
         29.26  29.26  30.97  30.97  31.22  31.22  37.19  37.19  38.44  38.44
         39.69  39.69  39.86  39.86  41.29  41.29  43.62  43.62  44.84  44.84
         46.44  46.44  47.75  47.75  49.10  49.10  52.05  52.05  54.73  54.73
         59.07  59.07  60.15  60.15  68.18  68.18  74.91  74.92  80.48  80.48
         82.63  82.63  86.83  86.83 107.12 107.12 109.12 109.12
  16  1  -7.99  -7.99  -7.78  -7.78  -7.78  -7.78  -7.64  -7.64  -6.09  -6.09
         -6.09  -6.09  -5.34  -5.34  -5.34  -5.34  -5.29  -5.29  -5.29  -5.29
         -3.46  -3.46  -3.39  -3.39  -3.39  -3.39  -3.14  -3.14  -3.13  -3.13
         -0.94  -0.94  -0.94  -0.94  -0.49  -0.49   2.41   2.41   2.41   2.41
          3.86   3.86   8.19   8.19   8.20   8.20  12.55  12.55  12.55  12.55
         13.14  13.14  13.14  13.14  19.64  19.64  20.90  20.90  25.90  25.90
         25.90  25.90  33.22  33.22  33.22  33.22  36.61  36.61  36.62  36.62
         40.23  40.23  40.23  40.23  43.12  43.12  43.12  43.12  49.34  49.34
         49.35  49.35  49.35  49.35  50.03  50.03  55.49  55.49  55.49  55.49
         56.22  56.22  56.22  56.22  62.59  62.59  62.60  62.60  73.68  73.68
         73.68  73.68  79.70  79.70 103.81 103.81 103.82 103.82
  17  1  -9.39  -7.66  -7.31  -7.30  -7.23  -7.17  -6.87  -6.67  -6.63  -6.29
         -6.26  -6.10  -5.90  -5.87  -5.59  -5.53  -5.52  -5.52  -5.43  -4.98
         -4.98  -4.61  -4.52  -4.52  -4.43  -4.43  -4.36  -4.18  -3.49  -3.41
         -3.41  -2.89  -1.90  -1.67   0.41   0.97   3.42   3.42   6.66   6.95
          7.38   7.57   8.02   8.41   8.42  10.12  10.68  11.04  11.26  11.96
         15.68  16.05  16.12  18.45  23.26  24.12  25.30  27.48  28.24  28.40
         28.73  30.21  32.71  32.85  33.25  34.32  34.96  35.36  36.87  37.00
         37.75  38.26  38.67  38.77  39.01  39.05  39.93  40.13  40.37  41.44
         42.72  43.05  44.01  44.83  45.87  46.34  46.92  51.04  51.17  52.36
         59.74  63.82  65.50  65.81  68.29  71.56  71.63  79.48  81.02  81.59
        100.03 100.17 101.03 101.35 102.13 106.12 108.46 110.70
  18  1  -9.73  -7.61  -7.46  -7.36  -7.16  -7.03  -6.79  -6.50  -6.33  -6.30
         -6.25  -6.17  -6.02  -5.93  -5.88  -5.74  -5.54  -5.43  -5.11  -4.86
         -4.84  -4.78  -4.78  -4.76  -4.25  -4.21  -4.17  -3.99  -3.82  -3.81
         -3.50  -2.62  -2.16   0.25   0.25   2.25   2.91   3.56   4.23   5.74
          6.24   6.97   7.51   7.70  10.12  10.30  10.51  12.65  13.02  13.43
         14.46  14.67  15.15  19.95  22.30  26.32  27.01  27.82  27.92  28.88
         30.59  30.72  31.75  32.57  33.63  34.22  34.48  35.01  35.15  36.14
         36.48  37.98  38.35  38.90  38.98  40.51  40.54  41.73  41.97  42.84
         43.12  43.34  43.77  44.99  45.22  46.46  46.73  46.90  47.62  49.37
         62.56  63.20  63.43  64.84  65.81  75.43  81.80  82.92  83.89  87.81
         92.06  93.17  95.20 103.09 103.53 105.37 110.18 111.50
  19  1  -9.36  -7.55  -7.42  -7.31  -7.30  -7.17  -6.76  -6.67  -6.63  -6.32
         -6.30  -6.23  -5.87  -5.82  -5.59  -5.52  -5.49  -5.49  -5.43  -5.01
         -4.98  -4.66  -4.59  -4.51  -4.51  -4.43  -4.43  -4.14  -3.41  -3.41
         -3.40  -2.23  -2.13  -1.89   0.40   0.98   3.42   3.42   6.11   6.95
          7.26   7.57   8.41   8.42   8.79  10.12  10.68  11.19  11.34  11.58
         15.45  16.05  16.53  18.29  23.18  24.12  25.30  28.07  28.40  28.41
         29.22  29.56  32.71  32.84  34.19  34.63  34.71  34.96  36.61  36.88
         36.90  37.72  38.26  39.01  39.05  39.15  39.67  39.93  40.25  42.07
         43.05  43.30  44.01  44.84  45.87  46.61  46.91  51.17  51.71  52.36
         61.63  62.60  65.07  65.51  68.28  71.65  72.02  78.04  79.48  81.60
         99.38 100.17 101.25 102.14 105.92 106.11 110.70 113.28
  20  1  -8.44  -8.38  -7.38  -7.27  -7.21  -7.07  -7.04  -6.94  -6.33  -6.31
         -6.25  -6.22  -6.21  -6.16  -5.67  -5.63  -5.42  -5.35  -5.27  -5.12
         -4.77  -4.65  -4.65  -4.61  -3.99  -3.96  -3.87  -3.86  -3.74  -3.63
         -3.35  -3.33  -1.79  -1.35  -1.15  -0.80   5.22   5.23   6.20   6.87
          7.94   8.05   8.65   8.69   9.15   9.21  10.27  10.75  11.99  12.54
         12.77  13.46  18.18  18.55  24.89  25.59  25.67  26.50  28.53  28.76
         29.05  30.11  31.04  31.10  32.14  32.52  34.39  34.72  35.41  35.55
         35.58  35.63  37.04  38.12  39.85  40.03  41.05  42.43  43.26  43.32
         43.49  44.49  44.76  44.80  46.93  47.35  48.43  49.43  50.26  51.24
         60.40  61.65  64.35  66.03  68.40  71.27  73.91  74.72  85.48  86.74
         87.55  89.33  94.40  96.35 105.00 109.14 117.35 119.36
  21  1 -10.57  -8.28  -8.27  -8.14  -7.80  -7.45  -7.36  -6.19  -6.00  -6.00
         -5.82  -5.79  -5.75  -5.71  -5.70  -5.69  -5.61  -5.55  -5.49  -5.42
         -5.39  -5.08  -4.63  -4.43  -4.40  -3.88  -3.78  -3.73  -3.63  -3.57
         -3.50  -3.36  -3.23  -3.16  -1.96  -0.13   3.01   5.74   6.16   6.31
          7.21   8.70   9.10   9.10  12.78  13.70  13.80  14.20  15.56  16.17
         16.43  17.64  17.97  19.11  21.00  22.18  26.38  26.85  26.91  28.96
         29.04  29.19  30.34  31.99  32.14  32.76  32.86  33.22  33.41  34.62
         34.81  35.61  35.88  36.06  36.09  38.56  38.83  38.86  40.48  40.62
         40.97  43.51  44.38  44.54  45.03  47.18  48.12  49.01  52.95  53.67
         55.20  55.42  58.54  60.66  61.98  64.63  65.95  66.33  69.49  73.37
         74.45  83.39  86.99  90.01 104.78 105.50 105.62 107.42
  22  1 -11.02  -8.70  -8.54  -7.99  -7.89  -7.70  -7.64  -6.13  -6.05  -5.87
         -5.86  -5.85  -5.72  -5.72  -5.67  -5.66  -5.44  -5.44  -5.40  -5.24
         -5.11  -4.91  -4.50  -4.50  -4.01  -4.01  -3.85  -3.85  -3.47  -3.39
         -3.38  -3.16  -3.14  -1.04  -0.86  -0.48   2.18   2.67   3.89   5.54
          6.97   8.17   8.21  12.08  12.80  13.00  13.48  16.27  16.28  16.65
         16.66  18.89  18.96  18.97  19.70  20.93  25.44  26.32  29.15  29.15
         29.19  29.29  29.29  29.36  29.91  29.91  30.90  32.23  32.30  33.73
         33.95  34.18  36.36  36.44  38.62  38.63  40.00  40.66  43.11  43.16
         43.16  43.34  44.81  44.81  49.20  49.26  49.48  49.93  51.80  53.60
         54.62  55.65  55.78  55.81  56.13  56.14  56.46  62.75  62.86  72.64
         74.57  78.53  78.55  79.80  83.79  83.80  98.27 108.39
  23  1 -10.57  -8.30  -8.14  -8.12  -7.75  -7.57  -7.42  -6.11  -6.07  -6.04
         -5.97  -5.89  -5.78  -5.73  -5.72  -5.71  -5.48  -5.45  -5.38  -5.35
         -5.32  -5.26  -4.57  -4.48  -4.20  -4.05  -3.80  -3.79  -3.69  -3.67
         -3.61  -3.42  -3.28  -2.84  -1.13  -0.73   3.00   5.44   5.82   6.72
          7.14   8.13   9.07  10.26  12.62  13.53  13.96  14.44  15.53  16.00
         16.21  17.20  18.20  19.02  20.96  23.24  26.00  26.51  27.68  29.14
         29.19  30.00  30.04  31.22  31.72  31.89  32.18  32.95  33.95  34.45
         35.06  35.74  36.12  36.17  36.82  38.06  38.30  39.84  40.09  40.24
         40.78  43.30  44.07  45.32  45.39  46.44  47.68  48.66  53.24  54.08
         57.18  57.39  57.59  59.54  60.00  66.68  67.37  67.57  69.58  74.35
         75.48  85.72  85.76  88.11  96.21 100.51 111.88 113.51
  24  1  -9.39  -9.36  -7.66  -7.56  -7.43  -7.23  -6.87  -6.76  -6.32  -6.26
         -6.23  -6.11  -5.90  -5.82  -5.53  -5.52  -5.49  -5.49  -5.43  -5.43
         -5.01  -4.98  -4.66  -4.61  -4.59  -4.51  -4.50  -4.36  -4.18  -4.14
         -3.49  -3.40  -2.89  -2.23  -2.13  -1.67   6.11   6.67   7.26   7.38
          8.02   8.80  11.05  11.19  11.26  11.35  11.58  11.97  15.45  15.68
         16.12  16.52  18.29  18.45  23.18  23.26  27.48  28.06  28.24  28.41
         28.72  29.22  29.55  30.21  33.25  34.19  34.32  34.62  34.70  35.35
         36.61  36.90  37.01  37.69  37.75  38.64  38.76  39.14  39.66  40.13
         40.23  40.36  41.45  42.07  42.72  43.30  46.33  46.61  51.04  51.71
         59.73  61.61  62.60  63.82  65.07  65.81  71.56  72.02  78.05  81.03
         99.37 100.03 101.03 101.24 101.34 105.91 108.48 113.30
  25  1  -9.39  -7.66  -7.31  -7.30  -7.23  -7.17  -6.87  -6.67  -6.63  -6.29
         -6.26  -6.10  -5.90  -5.87  -5.59  -5.53  -5.52  -5.52  -5.43  -4.98
         -4.98  -4.61  -4.52  -4.52  -4.43  -4.43  -4.36  -4.18  -3.49  -3.41
         -3.41  -2.89  -1.90  -1.67   0.41   0.97   3.42   3.42   6.66   6.95
          7.38   7.57   8.02   8.41   8.42  10.12  10.68  11.04  11.26  11.96
         15.68  16.05  16.12  18.45  23.26  24.12  25.30  27.48  28.24  28.40
         28.73  30.21  32.71  32.85  33.25  34.32  34.96  35.36  36.87  37.00
         37.75  38.26  38.67  38.77  39.01  39.05  39.93  40.13  40.37  41.44
         42.72  43.05  44.01  44.83  45.87  46.34  46.92  51.04  51.17  52.36
         59.74  63.82  65.50  65.81  68.29  71.56  71.63  79.48  81.02  81.59
        100.03 100.17 101.03 101.35 102.13 106.12 108.46 110.70
  26  1  -9.73  -7.61  -7.46  -7.36  -7.16  -7.03  -6.79  -6.50  -6.33  -6.30
         -6.25  -6.17  -6.02  -5.93  -5.88  -5.74  -5.54  -5.43  -5.11  -4.86
         -4.84  -4.78  -4.78  -4.76  -4.25  -4.21  -4.17  -3.99  -3.82  -3.81
         -3.50  -2.62  -2.16   0.25   0.25   2.25   2.91   3.56   4.23   5.74
          6.24   6.97   7.51   7.70  10.12  10.30  10.51  12.65  13.02  13.43
         14.46  14.67  15.15  19.95  22.30  26.32  27.01  27.82  27.92  28.88
         30.59  30.72  31.75  32.57  33.63  34.22  34.48  35.01  35.15  36.14
         36.48  37.98  38.35  38.90  38.98  40.51  40.54  41.73  41.97  42.84
         43.12  43.34  43.77  44.99  45.22  46.46  46.73  46.90  47.62  49.37
         62.56  63.20  63.43  64.84  65.81  75.43  81.80  82.92  83.89  87.81
         92.06  93.17  95.20 103.09 103.53 105.37 110.18 111.50
  27  1  -9.36  -7.55  -7.42  -7.31  -7.30  -7.17  -6.76  -6.67  -6.63  -6.32
         -6.30  -6.23  -5.87  -5.82  -5.59  -5.52  -5.49  -5.49  -5.43  -5.01
         -4.98  -4.66  -4.59  -4.51  -4.51  -4.43  -4.43  -4.14  -3.41  -3.41
         -3.40  -2.23  -2.13  -1.89   0.40   0.98   3.42   3.42   6.11   6.95
          7.26   7.57   8.41   8.42   8.79  10.12  10.68  11.19  11.34  11.58
         15.45  16.05  16.53  18.29  23.18  24.12  25.30  28.07  28.40  28.41
         29.22  29.56  32.71  32.84  34.19  34.63  34.71  34.96  36.61  36.88
         36.90  37.72  38.26  39.01  39.05  39.15  39.67  39.93  40.25  42.07
         43.05  43.30  44.01  44.84  45.87  46.61  46.91  51.17  51.71  52.36
         61.63  62.60  65.07  65.51  68.28  71.65  72.02  78.04  79.48  81.60
         99.38 100.17 101.25 102.14 105.92 106.11 110.70 113.28
  28  1  -8.44  -8.38  -7.38  -7.27  -7.21  -7.07  -7.04  -6.94  -6.33  -6.31
         -6.25  -6.22  -6.21  -6.16  -5.67  -5.63  -5.42  -5.35  -5.27  -5.12
         -4.77  -4.65  -4.65  -4.61  -3.99  -3.96  -3.87  -3.86  -3.74  -3.63
         -3.35  -3.33  -1.79  -1.35  -1.15  -0.80   5.22   5.23   6.20   6.87
          7.94   8.05   8.65   8.69   9.15   9.21  10.27  10.75  11.99  12.54
         12.77  13.46  18.18  18.55  24.89  25.59  25.67  26.50  28.53  28.76
         29.05  30.11  31.04  31.10  32.14  32.52  34.39  34.72  35.41  35.55
         35.58  35.63  37.04  38.12  39.85  40.03  41.05  42.43  43.26  43.32
         43.49  44.49  44.76  44.80  46.93  47.35  48.43  49.43  50.26  51.24
         60.40  61.65  64.35  66.03  68.40  71.27  73.91  74.72  85.48  86.74
         87.55  89.33  94.40  96.35 105.00 109.14 117.35 119.36
  29  1  -7.73  -7.73  -7.71  -7.71  -7.38  -7.38  -7.28  -7.28  -6.34  -6.34
         -6.02  -6.02  -5.60  -5.60  -5.58  -5.58  -5.25  -5.25  -4.99  -4.99
         -4.16  -4.16  -3.87  -3.87  -3.78  -3.78  -3.53  -3.53  -3.25  -3.25
         -1.84  -1.84  -0.12  -0.12   1.19   1.19   1.47   1.47   4.31   4.31
          4.46   4.46   7.45   7.45   8.97   8.97   9.80   9.80  11.26  11.26
         12.00  12.00  15.23  15.23  21.02  21.02  24.33  24.33  28.85  28.85
         29.26  29.26  30.84  30.84  31.43  31.43  37.30  37.30  38.23  38.23
         39.05  39.05  40.43  40.43  41.14  41.14  44.23  44.23  45.23  45.23
         46.14  46.14  46.95  46.95  49.44  49.44  52.63  52.63  54.25  54.25
         59.23  59.23  59.99  59.99  68.54  68.54  72.72  72.72  81.37  81.37
         82.64  82.64  87.14  87.14 102.88 102.88 109.68 109.68
  30  1  -7.31  -7.31  -7.30  -7.30  -7.17  -7.17  -6.67  -6.67  -6.63  -6.63
         -6.29  -6.29  -5.87  -5.87  -5.59  -5.59  -5.52  -5.52  -4.98  -4.98
         -4.51  -4.51  -4.43  -4.43  -4.42  -4.42  -3.41  -3.41  -3.41  -3.41
         -1.90  -1.90   0.40   0.40   0.97   0.97   3.41   3.41   3.42   3.42
          6.95   6.95   7.57   7.57   8.41   8.41   8.42   8.42  10.12  10.12
         10.67  10.67  16.05  16.05  24.12  24.12  25.30  25.30  28.40  28.40
         32.71  32.71  32.84  32.84  34.96  34.96  36.88  36.88  38.28  38.28
         39.01  39.01  39.05  39.05  39.93  39.93  43.04  43.05  44.01  44.01
         44.85  44.85  45.87  45.87  46.92  46.92  51.17  51.17  52.35  52.35
         65.50  65.51  68.29  68.29  71.64  71.64  79.48  79.48  81.60  81.60
        100.18 100.18 102.15 102.15 106.13 106.13 110.71 110.71
  31  1  -7.68  -7.68  -7.55  -7.55  -7.50  -7.50  -7.38  -7.38  -6.23  -6.23
         -6.07  -6.07  -5.92  -5.92  -5.39  -5.39  -5.16  -5.16  -5.06  -5.06
         -4.22  -4.22  -3.86  -3.86  -3.76  -3.76  -3.52  -3.52  -3.21  -3.21
         -1.79  -1.79   0.43   0.43   0.72   0.72   1.31   1.31   4.00   4.00
          4.88   4.88   7.28   7.28   8.62   8.62  10.58  10.58  10.75  10.75
         12.69  12.69  14.57  14.57  21.63  21.63  24.29  24.29  28.52  28.52
         28.89  28.89  30.90  30.90  31.67  31.67  36.57  36.58  38.96  38.96
         39.22  39.22  40.34  40.34  41.82  41.82  43.10  43.10  44.42  44.42
         46.74  46.74  48.49  48.49  48.83  48.83  51.36  51.36  55.18  55.18
         58.20  58.20  61.12  61.12  67.87  67.87  77.53  77.53  79.42  79.42
         82.55  82.55  86.69  86.69 107.48 107.49 110.06 110.06
  32  1  -7.99  -7.99  -7.88  -7.88  -7.69  -7.69  -7.64  -7.64  -6.13  -6.13
         -6.05  -6.05  -5.44  -5.44  -5.44  -5.44  -5.24  -5.24  -5.11  -5.11
         -3.47  -3.47  -3.39  -3.39  -3.38  -3.38  -3.16  -3.16  -3.14  -3.14
         -1.04  -1.04  -0.86  -0.86  -0.49  -0.49   2.18   2.18   2.67   2.67
          3.89   3.89   8.17   8.17   8.21   8.21  12.08  12.08  12.80  12.80
         13.00  13.00  13.48  13.48  19.70  19.70  20.93  20.93  25.45  25.45
         26.32  26.32  32.30  32.30  34.18  34.18  36.36  36.36  36.44  36.44
         40.04  40.04  40.71  40.71  43.11  43.11  43.35  43.35  49.21  49.22
         49.26  49.26  49.48  49.48  49.93  49.93  54.62  54.62  56.13  56.13
         56.14  56.14  56.46  56.46  62.76  62.76  62.86  62.86  72.63  72.63
         74.56  74.56  79.81  79.81  98.27  98.27 108.39 108.39
  33  1  -9.38  -7.73  -7.35  -7.32  -7.18  -7.10  -6.90  -6.68  -6.60  -6.29
         -6.21  -6.04  -5.92  -5.90  -5.64  -5.56  -5.55  -5.50  -5.39  -4.97
         -4.97  -4.59  -4.58  -4.47  -4.41  -4.40  -4.28  -4.21  -3.55  -3.39
         -3.39  -3.20  -1.89  -1.42   0.13   1.26   3.46   3.46   6.18   6.76
          7.15   7.87   8.03   8.60   8.85   9.82  10.78  10.92  11.34  12.26
         15.25  15.90  16.46  18.36  23.35  23.73  26.08  26.73  28.10  28.58
         28.99  30.45  32.63  32.65  32.92  34.17  34.45  35.49  36.56  37.57
         38.06  38.35  38.60  38.92  38.97  39.00  40.50  40.51  40.71  41.10
         42.66  43.28  43.31  44.41  46.09  46.16  47.82  50.42  50.71  52.98
         58.99  64.63  65.29  65.77  66.60  71.60  73.17  78.35  82.29  82.86
         96.94  98.85  99.10  99.99 102.09 105.70 107.88 109.98
  34  1  -9.71  -7.72  -7.42  -7.34  -7.22  -6.95  -6.79  -6.55  -6.33  -6.24
         -6.22  -6.18  -6.06  -5.97  -5.87  -5.68  -5.54  -5.43  -5.14  -4.91
         -4.87  -4.77  -4.75  -4.71  -4.33  -4.26  -4.17  -3.89  -3.80  -3.78
         -3.48  -2.82  -1.89   0.26   0.28   2.21   2.90   3.24   4.57   5.61
          5.85   6.61   8.07   8.14  10.08  10.43  10.44  12.39  13.11  13.27
         14.12  14.80  15.50  19.77  22.56  26.19  27.54  27.81  28.01  28.86
         29.96  30.30  32.10  32.57  33.97  34.21  34.70  35.00  35.42  35.89
         36.40  37.57  38.17  38.61  39.54  40.33  40.65  41.74  41.87  42.54
         43.06  43.64  44.19  44.82  45.29  46.65  46.79  47.08  47.19  50.17
         62.57  62.89  63.42  64.15  66.08  75.68  81.39  82.45  84.15  86.76
         91.13  93.58  96.03 101.32 102.14 106.03 109.13 111.58
  35  1  -9.33  -7.56  -7.52  -7.35  -7.32  -7.09  -6.69  -6.68  -6.60  -6.31
         -6.29  -6.29  -5.90  -5.79  -5.64  -5.52  -5.50  -5.46  -5.37  -5.04
         -4.97  -4.68  -4.62  -4.58  -4.55  -4.41  -4.40  -4.12  -3.39  -3.39
         -3.37  -2.34  -1.89  -1.86   0.13   1.26   3.46   3.46   5.49   6.76
          7.15   7.42   8.60   8.85   9.36   9.82  10.92  11.03  11.20  11.83
         15.12  15.90  16.94  18.05  23.19  23.73  26.07  27.68  28.48  28.58
         29.13  30.18  32.66  32.91  33.95  34.07  34.45  35.38  36.45  36.56
         37.18  37.32  38.35  38.61  38.92  38.98  39.31  40.50  40.99  42.34
         43.28  43.31  43.66  44.42  46.16  46.62  47.82  50.71  51.71  52.98
         62.24  62.74  64.35  65.29  66.59  72.59  73.19  76.88  78.34  82.29
         97.95  99.09  99.16  99.99 107.87 108.38 109.98 115.06
  36  1  -8.45  -8.34  -7.45  -7.34  -7.23  -7.06  -7.00  -6.82  -6.40  -6.36
         -6.28  -6.19  -6.14  -6.10  -5.69  -5.62  -5.46  -5.33  -5.32  -5.03
         -4.85  -4.66  -4.61  -4.57  -4.04  -4.04  -3.85  -3.83  -3.73  -3.55
         -3.36  -3.33  -2.08  -1.62  -0.80  -0.51   5.26   5.28   5.80   7.14
          7.35   7.84   8.43   9.05   9.44   9.76  10.05  11.00  11.73  12.43
         12.82  13.79  17.85  18.55  24.30  25.63  25.72  27.41  28.39  28.39
         28.88  30.26  30.72  30.78  32.17  33.11  34.16  34.53  35.51  35.64
         35.71  35.76  37.11  38.86  39.70  39.99  40.23  42.38  42.87  43.10
         43.89  44.49  45.00  45.32  47.06  47.80  47.87  49.23  50.34  51.79
         59.72  62.20  63.26  66.46  67.18  72.40  73.44  75.50  83.33  86.05
         87.44  90.83  93.99  97.75 102.69 110.79 114.16 117.37
  37  1 -10.54  -8.39  -8.34  -8.10  -7.82  -7.44  -7.27  -6.22  -6.08  -6.02
         -5.86  -5.78  -5.68  -5.67  -5.63  -5.61  -5.59  -5.56  -5.52  -5.45
         -5.36  -4.98  -4.66  -4.50  -4.41  -3.81  -3.77  -3.70  -3.64  -3.55
         -3.52  -3.42  -3.31  -2.98  -2.35   0.15   3.06   5.07   5.89   6.75
          7.93   8.53   8.95   9.16  12.90  13.32  13.75  14.53  15.24  16.38
         16.60  17.37  18.33  18.97  21.03  21.88  26.37  26.44  27.25  28.51
         28.96  29.17  30.53  31.98  32.43  32.51  32.86  32.98  34.29  34.47
         35.18  35.69  35.77  35.77  36.18  37.74  38.43  39.15  41.05  41.33
         41.42  43.72  43.99  44.62  44.72  47.47  47.83  49.51  52.59  53.14
         54.22  54.71  59.09  61.67  63.12  64.31  65.90  66.23  69.38  72.37
         74.41  82.49  87.20  90.46  98.72 104.41 106.35 110.24
  38  1 -10.99  -8.82  -8.48  -7.98  -7.97  -7.63  -7.61  -6.19  -6.01  -5.87
         -5.85  -5.84  -5.74  -5.74  -5.64  -5.64  -5.58  -5.55  -5.53  -5.13
         -4.91  -4.62  -4.50  -4.50  -4.09  -4.08  -3.77  -3.77  -3.49  -3.40
         -3.37  -3.24  -3.15  -1.16  -0.79  -0.48   1.97   2.93   3.97   4.86
          7.71   8.12   8.27  11.60  12.45  13.42  13.80  16.09  16.10  16.85
         16.86  18.66  18.95  18.95  19.85  21.04  24.96  26.69  29.00  29.00
         29.26  29.26  29.33  29.42  30.23  30.23  30.40  31.44  32.98  33.69
         34.01  35.17  35.78  35.92  38.50  38.50  40.01  41.32  42.33  42.33
         43.34  43.76  45.61  45.61  48.85  49.23  49.64  49.67  51.05  53.83
         54.59  55.90  55.94  56.03  56.57  56.60  57.59  63.24  63.62  71.49
         75.24  75.97  75.98  80.14  86.17  86.19  92.29 111.54
  39  1 -10.54  -8.41  -8.07  -8.07  -7.72  -7.68  -7.39  -6.23  -6.14  -6.07
         -5.96  -5.89  -5.77  -5.72  -5.71  -5.68  -5.48  -5.36  -5.34  -5.34
         -5.24  -5.23  -4.54  -4.51  -4.14  -4.10  -3.87  -3.82  -3.81  -3.76
         -3.60  -3.39  -3.26  -2.65  -1.03  -0.70   3.03   5.03   5.15   6.99
          7.82   7.86   9.11  10.84  12.57  13.19  14.07  14.80  15.13  15.77
         16.52  16.81  18.48  18.79  20.97  23.99  25.57  26.62  28.00  29.13
         29.18  29.94  30.53  30.91  31.26  31.57  31.70  32.06  34.30  35.26
         35.36  35.47  36.33  36.39  37.21  37.53  37.63  39.69  39.72  41.09
         41.32  43.29  44.15  45.46  45.54  46.02  46.90  48.92  53.10  53.92
         57.18  58.17  58.59  59.04  59.41  68.33  68.47  69.34  69.56  74.18
         76.42  85.00  86.78  87.12  92.05  96.50 112.76 114.69
  40  1  -9.39  -9.33  -7.73  -7.57  -7.53  -7.18  -6.90  -6.69  -6.31  -6.29
         -6.21  -6.04  -5.92  -5.78  -5.56  -5.55  -5.51  -5.46  -5.38  -5.37
         -5.04  -4.97  -4.68  -4.62  -4.59  -4.55  -4.47  -4.28  -4.21  -4.12
         -3.55  -3.37  -3.20  -2.34  -1.86  -1.42   5.49   6.19   7.42   7.87
          8.03   9.36  10.78  11.03  11.19  11.34  11.83  12.27  15.12  15.25
         16.46  16.93  18.05  18.36  23.19  23.35  26.73  27.67  28.10  28.48
         28.98  29.12  30.18  30.44  32.63  33.94  34.07  34.16  35.37  35.48
         36.45  37.15  37.32  37.57  38.05  38.60  38.61  38.97  39.31  40.50
         40.71  40.97  41.10  42.34  42.65  43.66  46.09  46.62  50.42  51.71
         58.97  62.24  62.72  64.35  64.63  65.77  71.60  72.59  76.89  82.88
         96.94  97.94  98.85  99.16 102.08 105.71 108.38 115.08
  41  1  -9.38  -7.73  -7.35  -7.32  -7.18  -7.10  -6.90  -6.68  -6.60  -6.29
         -6.21  -6.04  -5.92  -5.90  -5.64  -5.56  -5.55  -5.50  -5.39  -4.97
         -4.97  -4.59  -4.58  -4.47  -4.41  -4.40  -4.28  -4.21  -3.55  -3.39
         -3.39  -3.20  -1.89  -1.42   0.13   1.26   3.46   3.46   6.18   6.76
          7.15   7.87   8.03   8.60   8.85   9.82  10.78  10.92  11.34  12.26
         15.25  15.90  16.46  18.36  23.35  23.73  26.08  26.73  28.10  28.58
         28.99  30.45  32.63  32.65  32.92  34.17  34.45  35.49  36.56  37.57
         38.06  38.35  38.60  38.92  38.97  39.00  40.50  40.51  40.71  41.10
         42.66  43.28  43.31  44.41  46.09  46.16  47.82  50.42  50.71  52.98
         58.99  64.63  65.29  65.77  66.60  71.60  73.17  78.35  82.29  82.86
         96.94  98.85  99.10  99.99 102.09 105.70 107.88 109.98
  42  1  -9.71  -7.72  -7.42  -7.34  -7.22  -6.95  -6.79  -6.55  -6.33  -6.24
         -6.22  -6.18  -6.06  -5.97  -5.87  -5.68  -5.54  -5.43  -5.14  -4.91
         -4.87  -4.77  -4.75  -4.71  -4.33  -4.26  -4.17  -3.89  -3.80  -3.78
         -3.48  -2.82  -1.89   0.26   0.28   2.21   2.90   3.24   4.57   5.61
          5.85   6.61   8.07   8.14  10.08  10.43  10.44  12.39  13.11  13.27
         14.12  14.80  15.50  19.77  22.56  26.19  27.54  27.81  28.01  28.86
         29.96  30.30  32.10  32.57  33.97  34.21  34.70  35.00  35.42  35.89
         36.40  37.57  38.17  38.61  39.54  40.33  40.65  41.74  41.87  42.54
         43.06  43.64  44.19  44.82  45.29  46.65  46.79  47.08  47.19  50.17
         62.57  62.89  63.42  64.15  66.08  75.68  81.39  82.45  84.15  86.76
         91.13  93.58  96.03 101.32 102.14 106.03 109.13 111.58
  43  1  -9.33  -7.56  -7.52  -7.35  -7.32  -7.09  -6.69  -6.68  -6.60  -6.31
         -6.29  -6.29  -5.90  -5.79  -5.64  -5.52  -5.50  -5.46  -5.37  -5.04
         -4.97  -4.68  -4.62  -4.58  -4.55  -4.41  -4.40  -4.12  -3.39  -3.39
         -3.37  -2.34  -1.89  -1.86   0.13   1.26   3.46   3.46   5.49   6.76
          7.15   7.42   8.60   8.85   9.36   9.82  10.92  11.03  11.20  11.83
         15.12  15.90  16.94  18.05  23.19  23.73  26.07  27.68  28.48  28.58
         29.13  30.18  32.66  32.91  33.95  34.07  34.45  35.38  36.45  36.56
         37.18  37.32  38.35  38.61  38.92  38.98  39.31  40.50  40.99  42.34
         43.28  43.31  43.66  44.42  46.16  46.62  47.82  50.71  51.71  52.98
         62.24  62.74  64.35  65.29  66.59  72.59  73.19  76.88  78.34  82.29
         97.95  99.09  99.16  99.99 107.87 108.38 109.98 115.06
  44  1  -8.45  -8.34  -7.45  -7.34  -7.23  -7.06  -7.00  -6.82  -6.40  -6.36
         -6.28  -6.19  -6.14  -6.10  -5.69  -5.62  -5.46  -5.33  -5.32  -5.03
         -4.85  -4.66  -4.61  -4.57  -4.04  -4.04  -3.85  -3.83  -3.73  -3.55
         -3.36  -3.33  -2.08  -1.62  -0.80  -0.51   5.26   5.28   5.80   7.14
          7.35   7.84   8.43   9.05   9.44   9.76  10.05  11.00  11.73  12.43
         12.82  13.79  17.85  18.55  24.30  25.63  25.72  27.41  28.39  28.39
         28.88  30.26  30.72  30.78  32.17  33.11  34.16  34.53  35.51  35.64
         35.71  35.76  37.11  38.86  39.70  39.99  40.23  42.38  42.87  43.10
         43.89  44.49  45.00  45.32  47.06  47.80  47.87  49.23  50.34  51.79
         59.72  62.20  63.26  66.46  67.18  72.40  73.44  75.50  83.33  86.05
         87.44  90.83  93.99  97.75 102.69 110.79 114.16 117.37
  45  1  -7.82  -7.82  -7.71  -7.71  -7.37  -7.37  -7.18  -7.18  -6.39  -6.39
         -5.99  -5.99  -5.70  -5.70  -5.46  -5.46  -5.28  -5.28  -4.89  -4.89
         -4.17  -4.17  -3.88  -3.88  -3.82  -3.82  -3.53  -3.53  -3.26  -3.26
         -1.87  -1.87  -0.36  -0.36   1.21   1.21   1.79   1.79   4.03   4.03
          4.70   4.70   7.59   7.59   9.09   9.09   9.32   9.32  11.60  11.60
         11.64  11.64  15.47  15.47  20.95  20.95  24.38  24.38  28.87  28.87
         28.99  28.99  30.55  30.55  32.16  32.16  36.83  36.83  38.29  38.29
         38.40  38.40  40.96  40.96  41.47  41.47  44.90  44.90  45.56  45.56
         45.84  45.84  46.13  46.13  49.86  49.86  52.99  52.99  53.84  53.84
         58.36  58.36  61.01  61.01  68.85  68.85  71.05  71.05  82.07  82.07
         82.63  82.63  87.60  87.61  97.86  97.86 109.14 109.14
  46  1  -7.35  -7.35  -7.32  -7.32  -7.10  -7.10  -6.68  -6.68  -6.60  -6.60
         -6.29  -6.29  -5.89  -5.89  -5.64  -5.64  -5.50  -5.50  -4.97  -4.97
         -4.58  -4.58  -4.41  -4.41  -4.40  -4.40  -3.39  -3.39  -3.39  -3.39
         -1.89  -1.89   0.12   0.12   1.26   1.26   3.46   3.46   3.46   3.46
          6.76   6.76   7.16   7.16   8.60   8.60   8.85   8.85   9.82   9.82
         10.91  10.91  15.90  15.90  23.73  23.73  26.08  26.08  28.58  28.58
         32.65  32.65  32.91  32.91  34.45  34.45  36.56  36.56  38.37  38.38
         38.92  38.92  38.98  38.98  40.50  40.50  43.27  43.28  43.31  43.31
         44.43  44.43  46.16  46.16  47.83  47.83  50.70  50.70  52.98  52.98
         65.29  65.29  66.60  66.60  73.18  73.18  78.34  78.34  82.29  82.29
         99.10  99.10 100.00 100.00 107.89 107.89 109.99 109.99
  47  1  -7.64  -7.64  -7.60  -7.60  -7.45  -7.45  -7.37  -7.37  -6.19  -6.19
         -6.10  -6.10  -6.06  -6.06  -5.30  -5.30  -5.23  -5.23  -4.95  -4.95
         -4.28  -4.28  -3.85  -3.85  -3.79  -3.79  -3.51  -3.51  -3.19  -3.19
         -1.76  -1.76   0.38   0.38   0.71   0.71   1.36   1.36   3.79   3.79
          5.17   5.17   7.24   7.24   8.42   8.42  10.24  10.24  11.23  11.23
         12.99  12.99  14.16  14.16  22.16  22.16  24.32  24.32  28.23  28.23
         28.35  28.35  31.03  31.03  32.07  32.07  35.90  35.90  38.57  38.57
         39.54  39.54  40.90  40.90  42.56  42.56  42.70  42.70  43.98  43.98
         47.04  47.04  48.64  48.64  49.13  49.13  50.63  50.63  55.59  55.59
         57.34  57.34  62.15  62.15  67.68  67.68  78.20  78.20  80.48  80.48
         82.39  82.39  86.76  86.76 104.98 104.98 111.41 111.41
  48  1  -7.98  -7.98  -7.97  -7.97  -7.63  -7.63  -7.61  -7.61  -6.20  -6.20
         -6.01  -6.01  -5.55  -5.55  -5.52  -5.52  -5.13  -5.13  -4.91  -4.91
         -3.48  -3.48  -3.40  -3.40  -3.37  -3.37  -3.24  -3.24  -3.15  -3.15
         -1.16  -1.16  -0.79  -0.79  -0.48  -0.48   1.97   1.97   2.93   2.93
          3.96   3.96   8.12   8.12   8.27   8.27  11.59  11.59  12.45  12.45
         13.42  13.42  13.80  13.80  19.85  19.85  21.04  21.04  24.97  24.97
         26.69  26.69  31.44  31.44  35.18  35.18  35.78  35.78  35.92  35.93
         40.05  40.05  41.36  41.36  43.34  43.34  43.76  43.76  48.87  48.87
         49.23  49.23  49.65  49.65  49.67  49.67  53.83  53.83  55.90  55.90
         55.93  55.93  57.59  57.60  63.25  63.25  63.62  63.62  71.48  71.48
         75.24  75.24  80.15  80.15  92.29  92.29 111.54 111.54
  49  1  -9.36  -7.82  -7.40  -7.33  -7.15  -7.02  -6.91  -6.68  -6.57  -6.27
         -6.16  -5.99  -5.93  -5.92  -5.70  -5.58  -5.57  -5.50  -5.34  -4.96
         -4.94  -4.65  -4.58  -4.43  -4.42  -4.34  -4.23  -4.19  -3.61  -3.48
         -3.37  -3.35  -1.88  -1.15  -0.14   1.55   3.53   3.54   5.64   6.52
          6.75   7.83   8.69   8.84   9.28   9.52  10.51  11.12  11.45  12.55
         14.83  15.67  16.80  18.15  23.47  23.50  26.09  26.96  27.91  28.85
         29.21  30.65  32.06  32.61  32.99  33.70  34.01  35.59  36.28  37.39
         38.31  38.51  38.78  38.83  39.18  39.51  40.71  40.74  41.05  41.11
         42.61  42.86  43.69  43.88  45.79  46.40  48.87  49.65  50.42  53.59
         58.36  64.96  64.99  65.48  65.55  71.75  74.52  77.30  82.56  84.95
         93.91  95.91  97.00  97.76 102.82 102.84 109.43 109.44
  50  1  -9.67  -7.86  -7.40  -7.32  -7.26  -6.86  -6.78  -6.58  -6.37  -6.24
         -6.19  -6.15  -6.05  -6.05  -5.82  -5.63  -5.53  -5.42  -5.20  -4.95
         -4.90  -4.76  -4.72  -4.66  -4.45  -4.29  -4.17  -3.80  -3.77  -3.75
         -3.45  -3.01  -1.60   0.30   0.33   2.13   2.91   2.93   4.91   5.00
          6.03   6.26   8.44   8.75  10.06  10.31  10.63  12.09  13.06  13.13
         13.79  14.95  15.84  19.49  22.97  26.21  27.80  28.13  28.18  28.79
         29.37  29.82  32.24  32.57  34.09  34.38  34.94  35.12  35.65  35.89
         36.03  37.25  37.79  38.22  40.12  40.64  40.84  41.41  41.65  42.16
         42.87  43.95  44.71  44.87  45.53  46.15  46.52  47.32  47.97  50.94
         62.42  62.60  63.38  63.40  66.21  76.00  80.63  82.09  84.10  85.59
         89.85  94.00  96.93  99.18 100.35 106.55 108.03 111.30
  51  1  -9.28  -7.72  -7.50  -7.40  -7.33  -7.02  -6.68  -6.63  -6.57  -6.35
         -6.30  -6.27  -5.93  -5.75  -5.69  -5.53  -5.50  -5.43  -5.31  -5.08
         -4.94  -4.71  -4.66  -4.65  -4.58  -4.42  -4.34  -4.10  -3.37  -3.36
         -3.35  -2.55  -1.88  -1.48  -0.14   1.55   3.53   3.54   4.90   6.52
          6.75   7.57   8.84   9.28   9.52   9.98  10.72  11.12  11.23  12.08
         14.80  15.67  17.32  17.72  23.25  23.50  26.95  27.25  28.55  28.64
         28.85  31.17  32.61  32.98  33.35  33.70  33.73  36.16  36.29  36.46
         36.64  37.88  38.07  38.51  38.78  38.83  38.96  41.11  41.70  42.58
         42.61  43.69  43.89  44.00  46.41  46.54  48.86  50.42  51.49  53.59
         62.08  63.50  63.96  64.96  64.97  73.40  74.54  75.93  77.30  82.56
         96.09  96.20  97.00  97.76 109.43 109.45 110.27 116.24
  52  1  -8.46  -8.29  -7.51  -7.48  -7.20  -7.04  -6.95  -6.72  -6.46  -6.42
         -6.29  -6.15  -6.09  -6.05  -5.70  -5.61  -5.49  -5.37  -5.30  -4.93
         -4.93  -4.66  -4.60  -4.51  -4.15  -4.11  -3.83  -3.79  -3.69  -3.49
         -3.38  -3.33  -2.35  -1.88  -0.43  -0.21   5.32   5.35   5.37   6.76
          7.37   7.67   8.16   9.49   9.63   9.86  10.37  11.24  11.50  12.08
         13.09  14.11  17.44  18.44  23.83  25.70  25.79  27.76  28.23  28.39
         28.96  30.07  30.18  30.49  32.24  33.89  34.18  34.33  35.46  35.61
         35.63  36.06  37.63  39.43  39.53  39.65  39.82  42.08  42.34  42.81
         44.61  44.65  45.30  45.53  47.36  47.53  48.35  48.69  50.63  52.31
         59.05  62.09  62.68  66.23  66.59  72.89  72.94  76.87  81.20  85.19
         86.70  92.00  93.89  99.17 100.32 110.84 112.05 113.92
  53  1 -10.49  -8.53  -8.39  -8.07  -7.83  -7.43  -7.21  -6.26  -6.15  -6.05
         -5.89  -5.77  -5.67  -5.65  -5.65  -5.62  -5.60  -5.47  -5.42  -5.33
         -5.31  -4.88  -4.70  -4.59  -4.39  -3.75  -3.74  -3.68  -3.66  -3.60
         -3.49  -3.47  -3.44  -2.72  -2.70   0.44   3.13   4.41   5.63   7.19
          7.97   8.65   9.17   9.26  12.94  13.03  13.72  14.85  14.92  16.51
         16.73  17.11  18.68  18.75  21.07  21.75  25.91  26.38  27.63  28.12
         28.89  29.14  30.73  31.25  32.50  32.91  32.94  33.02  34.38  34.71
         35.14  35.34  35.62  36.32  36.71  36.95  37.88  39.40  41.74  41.86
         42.21  43.36  44.01  44.32  44.85  47.53  47.68  49.86  52.15  52.47
         53.33  54.14  59.67  62.97  64.42  64.51  66.15  66.35  69.27  71.52
         74.36  81.79  87.00  90.53  92.64 101.24 106.01 114.57
  54  1 -10.95  -8.95  -8.45  -8.07  -7.94  -7.61  -7.54  -6.28  -5.98  -5.88
         -5.83  -5.83  -5.77  -5.77  -5.73  -5.62  -5.62  -5.61  -5.60  -5.02
         -4.70  -4.51  -4.51  -4.29  -4.16  -4.16  -3.70  -3.70  -3.52  -3.41
         -3.36  -3.35  -3.17  -1.29  -0.73  -0.47   1.78   3.21   4.09   4.21
          8.03   8.35   8.46  11.10  12.10  13.82  14.11  15.93  15.93  17.05
         17.06  18.30  18.92  18.93  20.07  21.27  24.47  27.01  28.72  28.73
         29.32  29.43  29.43  29.74  30.01  30.53  30.54  30.64  33.19  34.02
         34.28  35.00  35.26  36.19  38.30  38.31  40.05  41.52  41.52  41.97
         43.81  44.37  46.39  46.40  48.35  49.19  49.24  49.90  50.41  53.09
         55.54  55.60  55.63  56.61  57.88  57.90  58.92  63.97  64.75  70.29
         73.57  73.59  75.67  80.73  86.40  88.12  88.14 113.07
  55  1 -10.50  -8.54  -8.04  -7.99  -7.80  -7.69  -7.34  -6.38  -6.23  -6.02
         -5.97  -5.90  -5.75  -5.71  -5.70  -5.63  -5.51  -5.42  -5.34  -5.19
         -5.13  -5.12  -4.54  -4.51  -4.24  -4.04  -4.00  -3.86  -3.83  -3.81
         -3.59  -3.37  -3.26  -2.44  -1.34  -0.26   3.09   4.49   4.63   7.27
          7.51   8.60   9.18  11.42  12.54  12.85  14.20  14.68  15.14  15.54
         16.44  16.82  18.43  18.76  20.99  24.87  25.14  26.75  28.27  29.05
         29.17  29.87  30.66  30.70  30.79  31.00  31.24  31.85  34.64  35.14
         35.37  36.30  36.50  36.77  36.86  37.17  37.59  39.30  39.40  41.94
         42.04  43.35  44.42  45.46  45.58  45.65  46.09  49.17  52.80  53.56
         56.80  58.07  59.18  59.55  59.82  69.54  69.55  70.82  71.76  73.91
         77.15  84.29  85.31  88.33  88.65  92.04 112.45 113.51
  56  1  -9.37  -9.28  -7.82  -7.72  -7.50  -7.16  -6.92  -6.63  -6.35  -6.29
         -6.16  -5.99  -5.92  -5.75  -5.58  -5.57  -5.53  -5.43  -5.34  -5.31
         -5.08  -4.97  -4.71  -4.65  -4.58  -4.58  -4.42  -4.23  -4.19  -4.10
         -3.61  -3.48  -3.35  -2.55  -1.48  -1.15   4.90   5.64   7.57   7.83
          8.69   9.98  10.51  10.72  11.23  11.45  12.08  12.56  14.80  14.83
         16.80  17.32  17.72  18.16  23.25  23.47  26.09  27.24  27.91  28.54
         28.63  29.20  30.65  31.17  32.06  33.35  33.72  34.01  35.59  36.16
         36.46  36.62  37.37  37.88  38.07  38.31  38.96  39.15  39.51  40.71
         40.74  41.04  41.68  42.58  42.85  43.99  45.79  46.54  49.65  51.49
         58.34  62.07  63.49  63.94  65.48  65.55  71.75  73.40  75.94  84.97
         93.90  95.91  96.09  96.19 102.80 102.85 110.26 116.26
  57  1  -9.36  -7.82  -7.40  -7.33  -7.15  -7.02  -6.91  -6.68  -6.57  -6.27
         -6.16  -5.99  -5.93  -5.92  -5.70  -5.58  -5.57  -5.50  -5.34  -4.96
         -4.94  -4.65  -4.58  -4.43  -4.42  -4.34  -4.23  -4.19  -3.61  -3.48
         -3.37  -3.35  -1.88  -1.15  -0.14   1.55   3.53   3.54   5.64   6.52
          6.75   7.83   8.69   8.84   9.28   9.52  10.51  11.12  11.45  12.55
         14.83  15.67  16.80  18.15  23.47  23.50  26.09  26.96  27.91  28.85
         29.21  30.65  32.06  32.61  32.99  33.70  34.01  35.59  36.28  37.39
         38.31  38.51  38.78  38.83  39.18  39.51  40.71  40.74  41.05  41.11
         42.61  42.86  43.69  43.88  45.79  46.40  48.87  49.65  50.42  53.59
         58.36  64.96  64.99  65.48  65.55  71.75  74.52  77.30  82.56  84.95
         93.91  95.91  97.00  97.76 102.82 102.84 109.43 109.44
  58  1  -9.67  -7.86  -7.40  -7.32  -7.26  -6.86  -6.78  -6.58  -6.37  -6.24
         -6.19  -6.15  -6.05  -6.05  -5.82  -5.63  -5.53  -5.42  -5.20  -4.95
         -4.90  -4.76  -4.72  -4.66  -4.45  -4.29  -4.17  -3.80  -3.77  -3.75
         -3.45  -3.01  -1.60   0.30   0.33   2.13   2.91   2.93   4.91   5.00
          6.03   6.26   8.44   8.75  10.06  10.31  10.63  12.09  13.06  13.13
         13.79  14.95  15.84  19.49  22.97  26.21  27.80  28.13  28.18  28.79
         29.37  29.82  32.24  32.57  34.09  34.38  34.94  35.12  35.65  35.89
         36.03  37.25  37.79  38.22  40.12  40.64  40.84  41.41  41.65  42.16
         42.87  43.95  44.71  44.87  45.53  46.15  46.52  47.32  47.97  50.94
         62.42  62.60  63.38  63.40  66.21  76.00  80.63  82.09  84.10  85.59
         89.85  94.00  96.93  99.18 100.35 106.55 108.03 111.30
  59  1  -9.28  -7.72  -7.50  -7.40  -7.33  -7.02  -6.68  -6.63  -6.57  -6.35
         -6.30  -6.27  -5.93  -5.75  -5.69  -5.53  -5.50  -5.43  -5.31  -5.08
         -4.94  -4.71  -4.66  -4.65  -4.58  -4.42  -4.34  -4.10  -3.37  -3.36
         -3.35  -2.55  -1.88  -1.48  -0.14   1.55   3.53   3.54   4.90   6.52
          6.75   7.57   8.84   9.28   9.52   9.98  10.72  11.12  11.23  12.08
         14.80  15.67  17.32  17.72  23.25  23.50  26.95  27.25  28.55  28.64
         28.85  31.17  32.61  32.98  33.35  33.70  33.73  36.16  36.29  36.46
         36.64  37.88  38.07  38.51  38.78  38.83  38.96  41.11  41.70  42.58
         42.61  43.69  43.89  44.00  46.41  46.54  48.86  50.42  51.49  53.59
         62.08  63.50  63.96  64.96  64.97  73.40  74.54  75.93  77.30  82.56
         96.09  96.20  97.00  97.76 109.43 109.45 110.27 116.24
  60  1  -8.46  -8.29  -7.51  -7.48  -7.20  -7.04  -6.95  -6.72  -6.46  -6.42
         -6.29  -6.15  -6.09  -6.05  -5.70  -5.61  -5.49  -5.37  -5.30  -4.93
         -4.93  -4.66  -4.60  -4.51  -4.15  -4.11  -3.83  -3.79  -3.69  -3.49
         -3.38  -3.33  -2.35  -1.88  -0.43  -0.21   5.32   5.35   5.37   6.76
          7.37   7.67   8.16   9.49   9.63   9.86  10.37  11.24  11.50  12.08
         13.09  14.11  17.44  18.44  23.83  25.70  25.79  27.76  28.23  28.39
         28.96  30.07  30.18  30.49  32.24  33.89  34.18  34.33  35.46  35.61
         35.63  36.06  37.63  39.43  39.53  39.65  39.82  42.08  42.34  42.81
         44.61  44.65  45.30  45.53  47.36  47.53  48.35  48.69  50.63  52.31
         59.05  62.09  62.68  66.23  66.59  72.89  72.94  76.87  81.20  85.19
         86.70  92.00  93.89  99.17 100.32 110.84 112.05 113.92
  61  1  -7.89  -7.89  -7.70  -7.70  -7.35  -7.35  -7.09  -7.09  -6.44  -6.44
         -5.97  -5.97  -5.78  -5.78  -5.47  -5.47  -5.17  -5.17  -4.80  -4.80
         -4.23  -4.23  -3.87  -3.87  -3.85  -3.85  -3.51  -3.51  -3.27  -3.27
         -1.90  -1.90  -0.59  -0.59   1.22   1.22   2.13   2.13   3.77   3.77
          4.95   4.95   7.76   7.76   8.85   8.85   9.18   9.18  11.28  11.28
         11.93  11.93  15.64  15.64  21.04  21.04  24.46  24.46  28.59  28.60
         28.81  28.81  30.33  30.33  32.94  32.94  36.29  36.29  37.82  37.82
         38.29  38.29  41.43  41.43  42.14  42.14  45.28  45.28  45.56  45.56
         45.62  45.62  45.86  45.86  50.36  50.36  52.80  52.80  53.77  53.77
         57.55  57.55  62.25  62.25  68.84  68.84  70.19  70.19  82.59  82.59
         82.62  82.62  88.19  88.19  92.57  92.57 107.69 107.69
  62  1  -7.40  -7.40  -7.33  -7.33  -7.02  -7.02  -6.68  -6.68  -6.57  -6.57
         -6.27  -6.27  -5.93  -5.93  -5.69  -5.69  -5.50  -5.50  -4.95  -4.95
         -4.65  -4.65  -4.42  -4.42  -4.34  -4.34  -3.37  -3.37  -3.36  -3.36
         -1.88  -1.88  -0.15  -0.15   1.55   1.55   3.53   3.53   3.54   3.54
          6.52   6.52   6.75   6.75   8.85   8.85   9.28   9.28   9.52   9.52
         11.12  11.12  15.67  15.67  23.50  23.50  26.96  26.96  28.85  28.85
         32.61  32.61  32.98  32.98  33.70  33.70  36.28  36.28  38.53  38.53
         38.78  38.78  38.83  38.83  41.11  41.11  42.61  42.61  43.69  43.69
         43.90  43.90  46.41  46.41  48.88  48.88  50.42  50.42  53.59  53.59
         64.96  64.96  64.99  64.99  74.53  74.53  77.30  77.30  82.56  82.56
         97.00  97.00  97.77  97.77 109.44 109.44 109.46 109.46
  63  1  -7.70  -7.70  -7.60  -7.60  -7.36  -7.36  -7.35  -7.35  -6.25  -6.25
         -6.14  -6.14  -6.08  -6.08  -5.33  -5.33  -5.17  -5.17  -4.83  -4.83
         -4.37  -4.37  -3.83  -3.83  -3.83  -3.83  -3.49  -3.49  -3.16  -3.16
         -1.73  -1.73   0.06   0.06   1.00   1.00   1.42   1.42   3.61   3.61
          5.45   5.45   7.22   7.22   8.22   8.22   9.90   9.90  11.70  11.70
         13.27  13.27  13.73  13.73  22.82  22.82  24.37  24.37  27.84  27.84
         27.90  27.90  31.19  31.19  32.22  32.22  35.46  35.47  37.91  37.91
         40.14  40.14  41.24  41.24  42.54  42.54  43.41  43.41  43.54  43.54
         47.35  47.35  48.52  48.52  49.53  49.53  49.97  49.97  55.92  55.92
         56.51  56.51  63.22  63.22  67.69  67.69  76.85  76.85  82.10  82.10
         83.53  83.53  87.21  87.21 101.93 101.93 111.16 111.16
  64  1  -8.06  -8.06  -7.94  -7.94  -7.60  -7.60  -7.53  -7.53  -6.28  -6.28
         -5.98  -5.98  -5.61  -5.61  -5.60  -5.60  -5.02  -5.02  -4.70  -4.70
         -3.51  -3.51  -3.41  -3.41  -3.36  -3.36  -3.35  -3.35  -3.17  -3.17
         -1.30  -1.30  -0.74  -0.74  -0.48  -0.48   1.78   1.78   3.21   3.21
          4.09   4.09   8.03   8.03   8.35   8.35  11.10  11.10  12.10  12.10
[...]
         86.77  86.77  86.90  86.90  96.95  96.95  99.77  99.77
 160  1  -8.38  -8.38  -7.61  -7.61  -7.51  -7.51  -7.23  -7.23  -7.01  -7.01
         -5.87  -5.87  -5.86  -5.86  -4.95  -4.95  -4.53  -4.53  -4.26  -4.26
         -4.01  -4.01  -3.49  -3.49  -3.43  -3.43  -3.30  -3.30  -3.28  -3.28
         -2.29  -2.29  -0.53  -0.53  -0.49  -0.49   1.25   1.25   4.70   4.70
          4.89   4.89   7.81   7.81   8.35   8.35   9.52   9.52  10.09  10.09
         15.28  15.28  15.29  15.29  21.32  21.32  21.89  21.89  26.07  26.07
         27.74  27.74  27.81  27.81  28.48  28.48  32.50  32.50  40.05  40.05
         42.43  42.43  44.12  44.12  44.40  44.40  44.88  44.88  48.17  48.17
         49.73  49.73  49.90  49.90  50.08  50.08  51.81  51.81  52.13  52.13
         53.06  53.06  65.11  65.11  65.45  65.45  69.48  69.48  70.75  70.75
         70.90  70.90  73.01  73.01  92.50  92.50  99.71  99.71
 161  1  -8.81  -8.65  -7.46  -7.46  -7.32  -6.86  -6.72  -6.32  -6.29  -6.29
         -6.23  -6.22  -6.01  -5.90  -5.90  -5.58  -5.56  -5.48  -5.09  -4.89
         -4.88  -4.87  -4.77  -4.77  -4.58  -4.46  -3.98  -3.76  -3.57  -3.57
         -3.57  -3.14  -1.53  -1.53   1.28   1.76   3.03   4.48   4.48   4.70
          4.70   8.18   8.76   8.80  10.61  10.61  12.37  12.78  12.78  12.82
         12.82  14.25  14.60  18.56  24.42  25.01  25.47  25.96  25.97  29.21
         30.05  31.80  32.99  32.99  33.15  34.15  34.81  34.81  34.81  36.06
         36.06  36.81  36.87  38.14  40.29  40.82  40.83  42.42  42.42  43.00
         43.05  43.70  43.93  43.94  45.18  46.27  49.20  49.20  56.22  57.86
         59.76  61.33  61.34  63.56  67.22  73.14  73.15  77.06  77.06  78.15
         84.33  84.34  84.37  84.71 105.32 107.99 112.89 112.90
 162  1  -8.99  -8.99  -7.39  -7.39  -6.85  -6.85  -6.60  -6.60  -6.41  -6.41
         -6.29  -6.28  -5.99  -5.99  -5.50  -5.49  -5.49  -5.49  -5.20  -5.20
         -5.08  -5.07  -4.59  -4.59  -4.46  -4.46  -3.97  -3.97  -3.54  -3.53
         -3.43  -3.43   0.99   0.99   1.03   1.04   1.30   1.30   4.07   4.07
          6.93   6.93   9.85   9.85  10.28  10.28  11.34  11.34  12.35  12.36
         13.92  13.92  17.47  17.47  27.04  27.04  28.60  28.60  29.19  29.19
         29.26  29.26  30.97  30.97  32.70  32.70  33.86  33.86  36.47  36.47
         36.74  36.74  38.77  38.77  39.69  39.69  39.86  39.86  42.39  42.39
         43.60  43.61  43.75  43.75  49.02  49.02  49.10  49.10  52.89  52.90
         59.06  59.07  63.71  63.71  70.00  70.00  77.18  77.18  80.48  80.49
         83.36  83.37  98.38  98.38 100.62 100.62 109.12 109.13
 163  1  -8.81  -8.65  -7.46  -7.46  -7.32  -6.86  -6.72  -6.32  -6.29  -6.29
         -6.23  -6.22  -6.01  -5.90  -5.90  -5.58  -5.56  -5.48  -5.09  -4.89
         -4.88  -4.87  -4.77  -4.77  -4.58  -4.46  -3.98  -3.76  -3.57  -3.57
         -3.57  -3.14  -1.53  -1.53   1.28   1.76   3.03   4.48   4.48   4.70
          4.70   8.18   8.76   8.80  10.61  10.61  12.37  12.78  12.78  12.82
         12.82  14.25  14.60  18.56  24.42  25.01  25.47  25.96  25.97  29.21
         30.05  31.80  32.99  32.99  33.15  34.15  34.81  34.81  34.81  36.06
         36.06  36.81  36.87  38.14  40.29  40.82  40.83  42.42  42.42  43.00
         43.05  43.70  43.93  43.94  45.18  46.27  49.20  49.20  56.22  57.86
         59.76  61.33  61.34  63.56  67.22  73.14  73.15  77.06  77.06  78.15
         84.33  84.34  84.37  84.71 105.32 107.99 112.89 112.90
 164  1  -8.21  -8.21  -7.91  -7.91  -6.93  -6.93  -6.80  -6.80  -6.59  -6.59
         -5.90  -5.90  -5.80  -5.80  -5.78  -5.78  -5.53  -5.53  -5.41  -5.41
         -4.68  -4.68  -4.53  -4.53  -3.90  -3.90  -3.63  -3.63  -3.46  -3.46
         -3.42  -3.42  -3.41  -3.41   1.91   1.91   3.18   3.19   6.44   6.44
          6.45   6.45   8.95   8.95  10.04  10.04  11.54  11.54  13.66  13.66
         13.87  13.87  15.88  15.88  24.39  24.39  26.44  26.44  26.88  26.88
         27.39  27.39  32.61  32.61  33.59  33.59  34.14  34.14  35.97  35.97
         36.50  36.50  38.56  38.56  39.75  39.75  40.53  40.53  41.43  41.43
         44.54  44.54  48.31  48.31  48.39  48.39  48.71  48.71  52.44  52.44
         56.27  56.27  64.76  64.76  71.37  71.37  74.00  74.00  74.43  74.43
         84.36  84.36  96.76  96.76  96.80  96.80 110.01 110.01
 165  1  -9.74  -9.73  -8.39  -8.02  -7.77  -7.37  -7.11  -6.80  -6.27  -6.17
         -6.00  -5.79  -5.75  -5.58  -5.54  -5.43  -5.41  -5.39  -5.10  -4.90
         -4.80  -4.78  -4.65  -4.43  -4.27  -4.24  -4.23  -4.17  -3.76  -3.58
         -3.50  -3.48  -3.37  -3.33  -0.69   1.20   2.26   2.91   4.03   5.70
          8.77  10.54  10.66  11.14  13.09  13.49  13.79  14.35  14.61  15.09
         15.47  16.31  18.19  20.02  22.22  22.65  24.11  27.38  27.54  28.37
         28.57  28.88  29.08  30.43  30.91  32.56  33.45  33.46  33.69  34.22
         34.42  34.88  35.46  35.80  36.48  38.82  40.50  40.95  40.96  42.05
         43.53  44.32  44.87  45.10  47.22  47.64  47.99  48.28  48.72  50.30
         51.29  54.12  62.54  65.03  67.07  70.03  72.54  72.97  73.12  75.34
         76.17  81.92  85.52  85.87  87.17  88.22  94.83 104.09
 166  1 -10.16 -10.16  -8.39  -8.39  -7.56  -7.56  -7.13  -7.13  -6.01  -6.01
         -5.87  -5.87  -5.86  -5.86  -5.64  -5.64  -5.63  -5.63  -4.74  -4.74
         -4.50  -4.50  -4.50  -4.50  -4.13  -4.13  -3.43  -3.43  -3.43  -3.42
         -3.29  -3.29  -2.35  -2.34  -0.51  -0.51   1.23   1.24   4.84   4.84
          8.03   8.04   9.80   9.80  13.82  13.83  15.31  15.31  15.31  15.32
         18.31  18.31  18.31  18.31  21.58  21.58  27.26  27.26  27.74  27.74
         27.74  27.75  29.11  29.12  31.43  31.43  31.43  31.43  32.43  32.43
         32.74  32.74  37.49  37.49  37.49  37.49  40.00  40.02  43.43  43.43
         44.45  44.46  48.41  48.41  49.75  49.75  49.75  49.75  50.97  50.97
         52.60  52.60  59.93  59.93  64.97  64.98  64.98  64.99  70.44  70.45
         71.92  71.92  78.75  78.76  78.78  78.79  96.03  96.03
 167  1  -9.74  -9.73  -8.39  -8.02  -7.77  -7.37  -7.11  -6.80  -6.27  -6.17
         -6.00  -5.79  -5.75  -5.58  -5.54  -5.43  -5.41  -5.39  -5.10  -4.90
         -4.80  -4.78  -4.65  -4.43  -4.27  -4.24  -4.23  -4.17  -3.76  -3.58
         -3.50  -3.48  -3.37  -3.33  -0.69   1.20   2.26   2.91   4.03   5.70
          8.77  10.54  10.66  11.14  13.09  13.49  13.79  14.35  14.61  15.09
         15.47  16.31  18.19  20.02  22.22  22.65  24.11  27.38  27.54  28.37
         28.57  28.88  29.08  30.43  30.91  32.56  33.45  33.46  33.69  34.22
         34.42  34.88  35.46  35.80  36.48  38.82  40.50  40.95  40.96  42.05
         43.53  44.32  44.87  45.10  47.22  47.64  47.99  48.28  48.72  50.30
         51.29  54.12  62.54  65.03  67.07  70.03  72.54  72.97  73.12  75.34
         76.17  81.92  85.52  85.87  87.17  88.22  94.83 104.09
 168  1  -8.81  -8.81  -8.65  -8.65  -7.32  -7.32  -6.73  -6.73  -6.32  -6.32
         -6.00  -6.00  -5.58  -5.58  -5.56  -5.56  -5.48  -5.48  -5.08  -5.08
         -4.89  -4.89  -4.77  -4.77  -4.77  -4.77  -4.46  -4.46  -3.99  -3.99
         -3.76  -3.76  -3.57  -3.57   1.28   1.28   1.76   1.76   8.76   8.76
          8.80   8.80  12.37  12.37  12.78  12.78  12.78  12.78  14.25  14.25
         14.61  14.61  18.56  18.56  24.41  24.41  25.00  25.00  25.47  25.47
         29.20  29.20  30.05  30.05  33.15  33.15  34.14  34.14  34.81  34.81
         36.81  36.81  36.86  36.86  38.14  38.14  42.42  42.42  42.42  42.42
         42.98  42.98  43.05  43.05  43.70  43.70  45.17  45.17  46.28  46.28
         57.85  57.85  63.56  63.56  73.14  73.14  73.15  73.15  78.14  78.14
         84.37  84.37  84.71  84.71 105.35 105.35 107.97 107.97
 169  1  -8.81  -8.65  -7.46  -7.46  -7.32  -6.86  -6.72  -6.32  -6.29  -6.29
         -6.23  -6.22  -6.01  -5.90  -5.90  -5.58  -5.56  -5.48  -5.09  -4.89
         -4.88  -4.87  -4.77  -4.77  -4.58  -4.46  -3.98  -3.76  -3.57  -3.57
         -3.57  -3.14  -1.53  -1.53   1.28   1.76   3.03   4.48   4.48   4.70
          4.70   8.18   8.76   8.80  10.61  10.61  12.37  12.78  12.78  12.82
         12.82  14.25  14.60  18.56  24.42  25.01  25.47  25.96  25.97  29.21
         30.05  31.80  32.99  32.99  33.15  34.15  34.81  34.81  34.81  36.06
         36.06  36.81  36.87  38.14  40.29  40.82  40.83  42.42  42.42  43.00
         43.05  43.70  43.93  43.94  45.18  46.27  49.20  49.20  56.22  57.86
         59.76  61.33  61.34  63.56  67.22  73.14  73.15  77.06  77.06  78.15
         84.33  84.34  84.37  84.71 105.32 107.99 112.89 112.90
 170  1  -8.99  -8.99  -7.39  -7.39  -6.85  -6.85  -6.60  -6.60  -6.41  -6.41
         -6.29  -6.28  -5.99  -5.99  -5.50  -5.49  -5.49  -5.49  -5.20  -5.20
         -5.08  -5.07  -4.59  -4.59  -4.46  -4.46  -3.97  -3.97  -3.54  -3.53
         -3.43  -3.43   0.99   0.99   1.03   1.04   1.30   1.30   4.07   4.07
          6.93   6.93   9.85   9.85  10.28  10.28  11.34  11.34  12.35  12.36
         13.92  13.92  17.47  17.47  27.04  27.04  28.60  28.60  29.19  29.19
         29.26  29.26  30.97  30.97  32.70  32.70  33.86  33.86  36.47  36.47
         36.74  36.74  38.77  38.77  39.69  39.69  39.86  39.86  42.39  42.39
         43.60  43.61  43.75  43.75  49.02  49.02  49.10  49.10  52.89  52.90
         59.06  59.07  63.71  63.71  70.00  70.00  77.18  77.18  80.48  80.49
         83.36  83.37  98.38  98.38 100.62 100.62 109.12 109.13
 171  1  -8.81  -8.65  -7.46  -7.46  -7.32  -6.86  -6.72  -6.32  -6.29  -6.29
         -6.23  -6.22  -6.01  -5.90  -5.90  -5.58  -5.56  -5.48  -5.09  -4.89
         -4.88  -4.87  -4.77  -4.77  -4.58  -4.46  -3.98  -3.76  -3.57  -3.57
         -3.57  -3.14  -1.53  -1.53   1.28   1.76   3.03   4.48   4.48   4.70
          4.70   8.18   8.76   8.80  10.61  10.61  12.37  12.78  12.78  12.82
         12.82  14.25  14.60  18.56  24.42  25.01  25.47  25.96  25.97  29.21
         30.05  31.80  32.99  32.99  33.15  34.15  34.81  34.81  34.81  36.06
         36.06  36.81  36.87  38.14  40.29  40.82  40.83  42.42  42.42  43.00
         43.05  43.70  43.93  43.94  45.18  46.27  49.20  49.20  56.22  57.86
         59.76  61.33  61.34  63.56  67.22  73.14  73.15  77.06  77.06  78.15
         84.33  84.34  84.37  84.71 105.32 107.99 112.89 112.90
 172  1  -8.21  -8.21  -7.91  -7.91  -6.93  -6.93  -6.80  -6.80  -6.59  -6.59
         -5.90  -5.90  -5.80  -5.80  -5.78  -5.78  -5.53  -5.53  -5.41  -5.41
         -4.68  -4.68  -4.53  -4.53  -3.90  -3.90  -3.63  -3.63  -3.46  -3.46
         -3.42  -3.42  -3.41  -3.41   1.91   1.91   3.18   3.19   6.44   6.44
          6.45   6.45   8.95   8.95  10.04  10.04  11.54  11.54  13.66  13.66
         13.87  13.87  15.88  15.88  24.39  24.39  26.44  26.44  26.88  26.88
         27.39  27.39  32.61  32.61  33.59  33.59  34.14  34.14  35.97  35.97
         36.50  36.50  38.56  38.56  39.75  39.75  40.53  40.53  41.43  41.43
         44.54  44.54  48.31  48.31  48.39  48.39  48.71  48.71  52.44  52.44
         56.27  56.27  64.76  64.76  71.37  71.37  74.00  74.00  74.43  74.43
         84.36  84.36  96.76  96.76  96.80  96.80 110.01 110.01
 173  1  -8.10  -8.10  -7.32  -7.32  -7.18  -7.18  -7.06  -7.06  -6.90  -6.90
         -5.96  -5.96  -5.61  -5.61  -5.39  -5.39  -5.32  -5.32  -4.70  -4.70
         -4.23  -4.23  -3.95  -3.95  -3.70  -3.70  -3.46  -3.46  -3.26  -3.26
         -1.70  -1.70  -1.48  -1.48   1.59   1.59   2.25   2.25   3.78   3.78
          6.43   6.43   6.55   6.55   8.31   8.31   8.89   8.89  10.50  10.50
         13.69  13.69  14.67  14.67  25.48  25.48  25.56  25.56  25.78  25.78
         27.39  27.39  30.16  30.16  30.20  30.20  35.12  35.12  39.27  39.28
         39.96  39.96  40.58  40.58  43.62  43.62  44.12  44.12  44.17  44.17
         49.01  49.01  49.03  49.03  49.39  49.39  50.69  50.69  53.24  53.24
         54.69  54.69  69.83  69.83  70.41  70.41  74.31  74.31  75.50  75.50
         85.52  85.52  85.82  85.82  95.21  95.21  99.00  99.00
 174  1  -7.46  -7.46  -7.46  -7.46  -6.86  -6.86  -6.28  -6.28  -6.28  -6.28
         -6.23  -6.23  -6.22  -6.22  -5.90  -5.90  -5.90  -5.90  -4.87  -4.87
         -4.87  -4.87  -4.57  -4.57  -3.57  -3.57  -3.57  -3.57  -3.14  -3.14
         -1.54  -1.54  -1.54  -1.54   3.03   3.03   4.47   4.47   4.48   4.48
          4.70   4.70   4.70   4.70   8.18   8.18  10.61  10.61  10.61  10.61
         12.82  12.82  12.82  12.82  25.97  25.97  25.97  25.97  31.80  31.80
         32.99  32.99  32.99  32.99  34.81  34.81  34.81  34.81  36.06  36.06
         36.06  36.06  40.29  40.29  40.84  40.84  40.84  40.85  43.93  43.93
         43.93  43.93  49.20  49.20  49.20  49.20  56.22  56.22  59.79  59.79
         61.34  61.34  61.34  61.34  67.23  67.23  77.06  77.06  77.06  77.06
         84.33  84.33  84.33  84.33 112.91 112.91 112.91 112.91
 175  1  -8.10  -8.10  -7.32  -7.32  -7.18  -7.18  -7.06  -7.06  -6.90  -6.90
         -5.96  -5.96  -5.61  -5.61  -5.39  -5.39  -5.32  -5.32  -4.70  -4.70
         -4.23  -4.23  -3.95  -3.95  -3.70  -3.70  -3.46  -3.46  -3.26  -3.26
         -1.70  -1.70  -1.48  -1.48   1.59   1.59   2.25   2.25   3.78   3.78
          6.43   6.43   6.55   6.55   8.31   8.31   8.89   8.89  10.50  10.50
         13.69  13.69  14.67  14.67  25.48  25.48  25.56  25.56  25.78  25.78
         27.39  27.39  30.16  30.16  30.20  30.20  35.12  35.12  39.27  39.28
         39.96  39.96  40.58  40.58  43.62  43.62  44.12  44.12  44.17  44.17
         49.01  49.01  49.03  49.03  49.39  49.39  50.69  50.69  53.24  53.24
         54.69  54.69  69.83  69.83  70.41  70.41  74.31  74.31  75.50  75.50
         85.52  85.52  85.82  85.82  95.21  95.21  99.00  99.00
 176  1  -8.39  -8.39  -7.56  -7.56  -7.56  -7.56  -7.13  -7.13  -7.13  -7.13
         -5.87  -5.87  -5.86  -5.86  -4.74  -4.74  -4.74  -4.74  -4.13  -4.13
         -4.13  -4.13  -3.43  -3.43  -3.43  -3.43  -3.29  -3.29  -3.29  -3.29
         -2.35  -2.35  -0.51  -0.51  -0.51  -0.51   1.24   1.24   4.83   4.83
          4.83   4.83   8.04   8.04   8.04   8.04   9.80   9.80   9.80   9.80
         15.31  15.31  15.32  15.32  21.58  21.58  21.58  21.58  27.26  27.26
         27.26  27.26  27.74  27.74  27.74  27.74  32.44  32.44  40.05  40.05
         43.43  43.43  43.43  43.43  44.47  44.47  44.47  44.47  48.42  48.42
         49.75  49.75  49.75  49.75  50.97  50.97  50.97  50.97  52.59  52.59
         52.59  52.59  64.97  64.97  64.98  64.98  70.46  70.46  70.47  70.47
         71.92  71.92  71.92  71.92  96.04  96.04  96.04  96.04
siesta: Fermi energy =      -1.599631 eV

siesta: Program's energy decomposition (eV):
siesta:-Eions   =   -7230.002773
siesta: Ena     =     325.636075
siesta: Ekin    =    3960.052920
siesta: Enl     =   -1514.521841
siesta: DEna    =      99.401871
siesta: DUscf   =      10.578823
siesta: DUext   =       0.000000
siesta: Exc     =   -2489.505830
siesta: eta*DQ  =       0.000000
siesta: Emadel  =       0.000000
siesta: Ekinion =       0.000000
siesta: Eharris =   -6838.360635
siesta: Eso     =       0.000000
siesta: Etot    =   -6838.360755
siesta: FreeEng =   -6838.363259

siesta: Final energy (eV):
siesta:       Kinetic =    3960.052920
siesta:       Hartree =     672.027977
siesta:    Ext. field =       0.000000
siesta:   Exch.-corr. =   -2489.505830
siesta:  Ion-electron =   -4298.761453
siesta:       Ion-ion =   -4682.174368
siesta:       Ekinion =       0.000000
siesta:         Total =   -6838.360755

siesta: Atomic forces (eV/Ang):
siesta:    1   -0.000024   -0.003333   -0.000012
siesta:    2    0.003750   -0.000030   -0.000017
siesta:    3   -0.011705   -0.000036   -0.241348
siesta:    4   -0.011589    0.000441   -0.241619
siesta:    5    0.011402   -0.000036    0.241855
siesta:    6    0.011517    0.000447    0.241605
siesta: ----------------------------------------
siesta:  Tot    0.003352   -0.002548    0.000464

siesta: Stress tensor (static) (eV/Ang**3):
siesta:     0.173860    0.000000    0.002106
siesta:     0.000000    0.160677    0.000000
siesta:     0.002106    0.000000    0.190315

siesta: Cell volume =        109.647160 Ang**3

siesta: Pressure (static):
siesta:                Solid            Molecule  Units
siesta:          -0.00190544         -0.00194550  Ry/Bohr**3
siesta:          -0.17495069         -0.17862910  eV/Ang**3
siesta:        -280.30493477       -286.19846274  kBar

siesta: Total spin polarization (Qup-Qdown) =    0.000000
siesta: Spin vector =    0.000000    0.000000    0.000000
siesta: No SpinPolK block detected...
The transport is along the z direction.
* Maximum dynamic memory allocated : Node    1 =    23 MB
 
* Maximum dynamic memory allocated : Node    0 =    24 MB
* Maximum dynamic memory allocated : Node    2 =    23 MB
* Maximum dynamic memory allocated : Node    3 =    23 MB
* Maximum dynamic memory allocated : Node    4 =    22 MB
* Maximum dynamic memory allocated : Node    5 =    22 MB
* Maximum dynamic memory allocated : Node    6 =    23 MB
* Maximum dynamic memory allocated : Node    7 =    23 MB
* Maximum dynamic memory allocated : Node    9 =    22 MB
* Maximum dynamic memory allocated : Node   10 =    22 MB
* Maximum dynamic memory allocated : Node    8 =    23 MB
* Maximum dynamic memory allocated : Node   11 =    22 MB
* Maximum dynamic memory allocated : Node   14 =    23 MB
* Maximum dynamic memory allocated : Node   15 =    22 MB
* Maximum dynamic memory allocated : Node   13 =    23 MB
* Maximum dynamic memory allocated : Node   20 =    23 MB
* Maximum dynamic memory allocated : Node   12 =    23 MB
* Maximum dynamic memory allocated : Node   16 =    22 MB
* Maximum dynamic memory allocated : Node   17 =    22 MB
* Maximum dynamic memory allocated : Node   19 =    23 MB
* Maximum dynamic memory allocated : Node   18 =    23 MB
* Maximum dynamic memory allocated : Node   21 =    22 MB
* Maximum dynamic memory allocated : Node   22 =    22 MB
* Maximum dynamic memory allocated : Node   23 =    22 MB
* Maximum memory occured during bulktrans                     
* Maximum dynamic memory allocated : Node   25 =    23 MB
* Maximum dynamic memory allocated : Node   27 =    22 MB
* Maximum dynamic memory allocated : Node   29 =    22 MB
* Maximum dynamic memory allocated : Node   30 =    23 MB
* Maximum dynamic memory allocated : Node   28 =    22 MB
* Maximum dynamic memory allocated : Node   31 =    23 MB
* Maximum dynamic memory allocated : Node   24 =    23 MB
* Maximum dynamic memory allocated : Node   26 =    22 MB

timer: CPU execution times:
timer:  Routine       Calls   Time/call    Tot.time        %
timer:  siesta            1    4904.392    4904.392   100.00
timer:  Setup             1       8.008       8.008     0.16
timer:  bands             1       0.019       0.019     0.00
timer:  writewave         1       0.027       0.027     0.00
timer:  KSV_init          1       0.011       0.011     0.00
timer:  IterMD            1    4758.077    4758.077    97.02
timer:  hsparse           2       1.025       2.050     0.04
timer:  overfsm           2       2.094       4.188     0.09
timer:  IterSCF          13     365.303    4748.935    96.83
timer:  kinefsm           2       1.776       3.552     0.07
timer:  nlefsm            2      30.973      61.946     1.26
timer:  DHSCF            14       9.100     127.401     2.60
timer:  DHSCF1            1       2.313       2.313     0.05
timer:  DHSCF2            1      40.915      40.915     0.83
timer:  REORD           146       0.000       0.019     0.00
timer:  POISON           15       0.079       1.191     0.02
timer:  DHSCF3           14       5.637      78.915     1.61
timer:  rhoofd           14       1.162      16.265     0.33
timer:  CELLXC           14       0.058       0.818     0.02
timer:  vmat             13       4.469      58.094     1.18
timer:  diagon           12     378.005    4536.057    92.49
timer:  cdiag          4224       1.042    4403.493    89.79
timer:  DHSCF4            1       5.001       5.001     0.10
timer:  dfscf             1       2.090       2.090     0.04
  
>> End of run:  12-JUL-2016  18:29:41
